# vtk DataFile Version 3.0
#This file was generated by the deal.II library on 2017/9/21 at 12:20:13
ASCII
DATASET UNSTRUCTURED_GRID

POINTS 256 double
0 0 0
0.125 0 0
0 0.125 0
0.125 0.125 0
0.125 0 0
0.25 0 0
0.125 0.125 0
0.25 0.125 0
0 0.125 0
0.125 0.125 0
0 0.25 0
0.125 0.25 0
0.125 0.125 0
0.25 0.125 0
0.125 0.25 0
0.25 0.25 0
0.25 0 0
0.375 0 0
0.25 0.125 0
0.375 0.125 0
0.375 0 0
0.5 0 0
0.375 0.125 0
0.5 0.125 0
0.25 0.125 0
0.375 0.125 0
0.25 0.25 0
0.375 0.25 0
0.375 0.125 0
0.5 0.125 0
0.375 0.25 0
0.5 0.25 0
0 0.25 0
0.125 0.25 0
0 0.375 0
0.125 0.375 0
0.125 0.25 0
0.25 0.25 0
0.125 0.375 0
0.25 0.375 0
0 0.375 0
0.125 0.375 0
0 0.5 0
0.125 0.5 0
0.125 0.375 0
0.25 0.375 0
0.125 0.5 0
0.25 0.5 0
0.25 0.25 0
0.375 0.25 0
0.25 0.375 0
0.375 0.375 0
0.375 0.25 0
0.5 0.25 0
0.375 0.375 0
0.5 0.375 0
0.25 0.375 0
0.375 0.375 0
0.25 0.5 0
0.375 0.5 0
0.375 0.375 0
0.5 0.375 0
0.375 0.5 0
0.5 0.5 0
0.5 0 0
0.625 0 0
0.5 0.125 0
0.625 0.125 0
0.625 0 0
0.75 0 0
0.625 0.125 0
0.75 0.125 0
0.5 0.125 0
0.625 0.125 0
0.5 0.25 0
0.625 0.25 0
0.625 0.125 0
0.75 0.125 0
0.625 0.25 0
0.75 0.25 0
0.75 0 0
0.875 0 0
0.75 0.125 0
0.875 0.125 0
0.875 0 0
1 0 0
0.875 0.125 0
1 0.125 0
0.75 0.125 0
0.875 0.125 0
0.75 0.25 0
0.875 0.25 0
0.875 0.125 0
1 0.125 0
0.875 0.25 0
1 0.25 0
0.5 0.25 0
0.625 0.25 0
0.5 0.375 0
0.625 0.375 0
0.625 0.25 0
0.75 0.25 0
0.625 0.375 0
0.75 0.375 0
0.5 0.375 0
0.625 0.375 0
0.5 0.5 0
0.625 0.5 0
0.625 0.375 0
0.75 0.375 0
0.625 0.5 0
0.75 0.5 0
0.75 0.25 0
0.875 0.25 0
0.75 0.375 0
0.875 0.375 0
0.875 0.25 0
1 0.25 0
0.875 0.375 0
1 0.375 0
0.75 0.375 0
0.875 0.375 0
0.75 0.5 0
0.875 0.5 0
0.875 0.375 0
1 0.375 0
0.875 0.5 0
1 0.5 0
0 0.5 0
0.125 0.5 0
0 0.625 0
0.125 0.625 0
0.125 0.5 0
0.25 0.5 0
0.125 0.625 0
0.25 0.625 0
0 0.625 0
0.125 0.625 0
0 0.75 0
0.125 0.75 0
0.125 0.625 0
0.25 0.625 0
0.125 0.75 0
0.25 0.75 0
0.25 0.5 0
0.375 0.5 0
0.25 0.625 0
0.375 0.625 0
0.375 0.5 0
0.5 0.5 0
0.375 0.625 0
0.5 0.625 0
0.25 0.625 0
0.375 0.625 0
0.25 0.75 0
0.375 0.75 0
0.375 0.625 0
0.5 0.625 0
0.375 0.75 0
0.5 0.75 0
0 0.75 0
0.125 0.75 0
0 0.875 0
0.125 0.875 0
0.125 0.75 0
0.25 0.75 0
0.125 0.875 0
0.25 0.875 0
0 0.875 0
0.125 0.875 0
0 1 0
0.125 1 0
0.125 0.875 0
0.25 0.875 0
0.125 1 0
0.25 1 0
0.25 0.75 0
0.375 0.75 0
0.25 0.875 0
0.375 0.875 0
0.375 0.75 0
0.5 0.75 0
0.375 0.875 0
0.5 0.875 0
0.25 0.875 0
0.375 0.875 0
0.25 1 0
0.375 1 0
0.375 0.875 0
0.5 0.875 0
0.375 1 0
0.5 1 0
0.5 0.5 0
0.625 0.5 0
0.5 0.625 0
0.625 0.625 0
0.625 0.5 0
0.75 0.5 0
0.625 0.625 0
0.75 0.625 0
0.5 0.625 0
0.625 0.625 0
0.5 0.75 0
0.625 0.75 0
0.625 0.625 0
0.75 0.625 0
0.625 0.75 0
0.75 0.75 0
0.75 0.5 0
0.875 0.5 0
0.75 0.625 0
0.875 0.625 0
0.875 0.5 0
1 0.5 0
0.875 0.625 0
1 0.625 0
0.75 0.625 0
0.875 0.625 0
0.75 0.75 0
0.875 0.75 0
0.875 0.625 0
1 0.625 0
0.875 0.75 0
1 0.75 0
0.5 0.75 0
0.625 0.75 0
0.5 0.875 0
0.625 0.875 0
0.625 0.75 0
0.75 0.75 0
0.625 0.875 0
0.75 0.875 0
0.5 0.875 0
0.625 0.875 0
0.5 1 0
0.625 1 0
0.625 0.875 0
0.75 0.875 0
0.625 1 0
0.75 1 0
0.75 0.75 0
0.875 0.75 0
0.75 0.875 0
0.875 0.875 0
0.875 0.75 0
1 0.75 0
0.875 0.875 0
1 0.875 0
0.75 0.875 0
0.875 0.875 0
0.75 1 0
0.875 1 0
0.875 0.875 0
1 0.875 0
0.875 1 0
1 1 0

CELLS 64 320
4	0	1	3	2
4	4	5	7	6
4	8	9	11	10
4	12	13	15	14
4	16	17	19	18
4	20	21	23	22
4	24	25	27	26
4	28	29	31	30
4	32	33	35	34
4	36	37	39	38
4	40	41	43	42
4	44	45	47	46
4	48	49	51	50
4	52	53	55	54
4	56	57	59	58
4	60	61	63	62
4	64	65	67	66
4	68	69	71	70
4	72	73	75	74
4	76	77	79	78
4	80	81	83	82
4	84	85	87	86
4	88	89	91	90
4	92	93	95	94
4	96	97	99	98
4	100	101	103	102
4	104	105	107	106
4	108	109	111	110
4	112	113	115	114
4	116	117	119	118
4	120	121	123	122
4	124	125	127	126
4	128	129	131	130
4	132	133	135	134
4	136	137	139	138
4	140	141	143	142
4	144	145	147	146
4	148	149	151	150
4	152	153	155	154
4	156	157	159	158
4	160	161	163	162
4	164	165	167	166
4	168	169	171	170
4	172	173	175	174
4	176	177	179	178
4	180	181	183	182
4	184	185	187	186
4	188	189	191	190
4	192	193	195	194
4	196	197	199	198
4	200	201	203	202
4	204	205	207	206
4	208	209	211	210
4	212	213	215	214
4	216	217	219	218
4	220	221	223	222
4	224	225	227	226
4	228	229	231	230
4	232	233	235	234
4	236	237	239	238
4	240	241	243	242
4	244	245	247	246
4	248	249	251	250
4	252	253	255	254

CELL_TYPES 64
 9 9 9 9 9 9 9 9 9 9 9 9 9 9 9 9 9 9 9 9 9 9 9 9 9 9 9 9 9 9 9 9 9 9 9 9 9 9 9 9 9 9 9 9 9 9 9 9 9 9 9 9 9 9 9 9 9 9 9 9 9 9 9 9
POINT_DATA 256
VECTORS velocity double
0 0 0
-0.000806238 0 0
0 0.000806238 0
0.325923 -0.325923 0
-0.000806238 0 0
-0.00278193 0 0
0.325923 -0.324803 0
1.11291 -0.460098 0
0 0.000806238 0
0.324803 -0.325923 0
0 0.00278193 0
0.460098 -1.11291 0
0.324803 -0.324803 0
1.10898 -0.460098 0
0.460098 -1.10898 0
1.57111 -1.57111 0
-0.00278193 0 0
-0.00475713 0 0
1.11291 -0.460098 0
1.8999 -0.324773 0
-0.00475713 0 0
-0.00557524 0 0
1.8999 -0.325896 0
2.22588 0.000793813 0
1.10898 -0.460098 0
1.89315 -0.324773 0
1.57111 -1.57111 0
2.68217 -1.10898 0
1.89315 -0.325896 0
2.21796 0.000793813 0
2.68217 -1.11292 0
3.14238 0.00278272 0
0 0.00278193 0
0.460098 -1.11291 0
0 0.00475713 0
0.324773 -1.8999 0
0.460098 -1.10898 0
1.57111 -1.57111 0
0.324773 -1.89315 0
1.10898 -2.68217 0
0 0.00475713 0
0.325896 -1.8999 0
0 0.00557524 0
-0.000793813 -2.22588 0
0.325896 -1.89315 0
1.11292 -2.68217 0
-0.000793813 -2.21796 0
-0.00278272 -3.14238 0
1.57111 -1.57111 0
2.68217 -1.10898 0
1.10898 -2.68217 0
1.89323 -1.89323 0
2.68217 -1.11292 0
3.14238 0.00278272 0
1.89323 -1.89997 0
2.21808 0.00477174 0
1.11292 -2.68217 0
1.89997 -1.89323 0
-0.00278272 -3.14238 0
-0.00477174 -2.21808 0
1.89997 -1.89997 0
2.22599 0.00477174 0
-0.00477174 -2.22599 0
-0.00559565 0.00559565 0
-0.00557524 0 0
-0.00475713 0 0
2.22588 -0.000793813 0
1.8999 0.325896 0
-0.00475713 0 0
-0.00278193 0 0
1.8999 0.324773 0
1.11291 0.460098 0
2.21796 -0.000793813 0
1.89315 0.325896 0
3.14238 -0.00278272 0
2.68217 1.11292 0
1.89315 0.324773 0
1.10898 0.460098 0
2.68217 1.10898 0
1.57111 1.57111 0
-0.00278193 0 0
-0.000806238 0 0
1.11291 0.460098 0
0.325923 0.324803 0
-0.000806238 0 0
0 0 0
0.325923 0.325923 0
0 -0.000806238 0
1.10898 0.460098 0
0.324803 0.324803 0
1.57111 1.57111 0
0.460098 1.10898 0
0.324803 0.325923 0
0 -0.000806238 0
0.460098 1.11291 0
0 -0.00278193 0
3.14238 -0.00278272 0
2.68217 1.11292 0
2.21808 -0.00477174 0
1.89323 1.89997 0
2.68217 1.10898 0
1.57111 1.57111 0
1.89323 1.89323 0
1.10898 2.68217 0
2.22599 -0.00477174 0
1.89997 1.89997 0
-0.00559565 -0.00559565 0
-0.00477174 2.22599 0
1.89997 1.89323 0
1.11292 2.68217 0
-0.00477174 2.21808 0
-0.00278272 3.14238 0
1.57111 1.57111 0
0.460098 1.10898 0
1.10898 2.68217 0
0.324773 1.89315 0
0.460098 1.11291 0
0 -0.00278193 0
0.324773 1.8999 0
0 -0.00475713 0
1.11292 2.68217 0
0.325896 1.89315 0
-0.00278272 3.14238 0
-0.000793813 2.21796 0
0.325896 1.8999 0
0 -0.00475713 0
-0.000793813 2.22588 0
0 -0.00557524 0
0 0.00557524 0
0.000793813 -2.22588 0
0 0.00475713 0
-0.325896 -1.8999 0
0.000793813 -2.21796 0
0.00278272 -3.14238 0
-0.325896 -1.89315 0
-1.11292 -2.68217 0
0 0.00475713 0
-0.324773 -1.8999 0
0 0.00278193 0
-0.460098 -1.11291 0
-0.324773 -1.89315 0
-1.10898 -2.68217 0
-0.460098 -1.10898 0
-1.57111 -1.57111 0
0.00278272 -3.14238 0
0.00477174 -2.21808 0
-1.11292 -2.68217 0
-1.89997 -1.89323 0
0.00477174 -2.22599 0
0.00559565 0.00559565 0
-1.89997 -1.89997 0
-2.22599 0.00477174 0
-1.10898 -2.68217 0
-1.89323 -1.89323 0
-1.57111 -1.57111 0
-2.68217 -1.10898 0
-1.89323 -1.89997 0
-2.21808 0.00477174 0
-2.68217 -1.11292 0
-3.14238 0.00278272 0
0 0.00278193 0
-0.460098 -1.11291 0
0 0.000806238 0
-0.324803 -0.325923 0
-0.460098 -1.10898 0
-1.57111 -1.57111 0
-0.324803 -0.324803 0
-1.10898 -0.460098 0
0 0.000806238 0
-0.325923 -0.325923 0
0 0 0
0.000806238 0 0
-0.325923 -0.324803 0
-1.11291 -0.460098 0
0.000806238 0 0
0.00278193 0 0
-1.57111 -1.57111 0
-2.68217 -1.10898 0
-1.10898 -0.460098 0
-1.89315 -0.324773 0
-2.68217 -1.11292 0
-3.14238 0.00278272 0
-1.89315 -0.325896 0
-2.21796 0.000793813 0
-1.11291 -0.460098 0
-1.8999 -0.324773 0
0.00278193 0 0
0.00475713 0 0
-1.8999 -0.325896 0
-2.22588 0.000793813 0
0.00475713 0 0
0.00557524 0 0
0.00559565 -0.00559565 0
0.00477174 2.22599 0
-2.22599 -0.00477174 0
-1.89997 1.89997 0
0.00477174 2.21808 0
0.00278272 3.14238 0
-1.89997 1.89323 0
-1.11292 2.68217 0
-2.21808 -0.00477174 0
-1.89323 1.89997 0
-3.14238 -0.00278272 0
-2.68217 1.11292 0
-1.89323 1.89323 0
-1.10898 2.68217 0
-2.68217 1.10898 0
-1.57111 1.57111 0
0.00278272 3.14238 0
0.000793813 2.21796 0
-1.11292 2.68217 0
-0.325896 1.89315 0
0.000793813 2.22588 0
0 -0.00557524 0
-0.325896 1.8999 0
0 -0.00475713 0
-1.10898 2.68217 0
-0.324773 1.89315 0
-1.57111 1.57111 0
-0.460098 1.10898 0
-0.324773 1.8999 0
0 -0.00475713 0
-0.460098 1.11291 0
0 -0.00278193 0
-3.14238 -0.00278272 0
-2.68217 1.11292 0
-2.21796 -0.000793813 0
-1.89315 0.325896 0
-2.68217 1.10898 0
-1.57111 1.57111 0
-1.89315 0.324773 0
-1.10898 0.460098 0
-2.22588 -0.000793813 0
-1.8999 0.325896 0
0.00557524 0 0
0.00475713 0 0
-1.8999 0.324773 0
-1.11291 0.460098 0
0.00475713 0 0
0.00278193 0 0
-1.57111 1.57111 0
-0.460098 1.10898 0
-1.10898 0.460098 0
-0.324803 0.324803 0
-0.460098 1.11291 0
0 -0.00278193 0
-0.324803 0.325923 0
0 -0.000806238 0
-1.11291 0.460098 0
-0.325923 0.324803 0
0.00278193 0 0
0.000806238 0 0
-0.325923 0.325923 0
0 -0.000806238 0
0.000806238 0 0
0 0 0
SCALARS pressure double 1
LOOKUP_TABLE default
-0.000496396 -0.0246414 0.407389 0.353964 -0.0193561 -0.0329973 0.374195 0.282227 0.401187 0.333031 0.740223 0.642188 0.353262 0.25385 0.670186 0.500084 -0.0329988 -0.0211595 0.282508 0.16457 -0.0263807 0.00369279 0.143958 0.0146341 0.254119 0.144095 0.500574 0.284062 0.124503 0.0139123 0.25653 0.0195745 0.739523 0.641528 0.945195 0.835598 0.669536 0.499595 0.856074 0.639593 0.950036 0.856211 0.996476 0.909021 0.875665 0.667505 0.910123 0.686949 0.500084 0.2838 0.640235 0.353262 0.256266 0.0195756 0.334183 0.0136302 0.668149 0.373043 0.687651 0.3682 0.353964 0.0136304 0.369118 -0.0004964 -0.00369279 0.0263807 -0.0146341 -0.143958 0.0211595 0.0329988 -0.16457 -0.282508 -0.0139123 -0.124503 -0.0195745 -0.25653 -0.144095 -0.254119 -0.284062 -0.500574 0.0329973 0.0193561 -0.282227 -0.374195 0.0246414 0.000496399 -0.353964 -0.407389 -0.25385 -0.353262 -0.500084 -0.670186 -0.333031 -0.401187 -0.642188 -0.740223 -0.0195756 -0.256266 -0.0136302 -0.334183 -0.2838 -0.500084 -0.353262 -0.640235 -0.0136304 -0.353964 0.0004964 -0.369118 -0.373043 -0.668149 -0.3682 -0.687651 -0.499595 -0.669536 -0.639593 -0.856074 -0.641528 -0.739523 -0.835598 -0.945195 -0.667505 -0.875665 -0.686949 -0.910123 -0.856211 -0.950036 -0.909021 -0.996476 1.00386 0.93867 0.897655 0.850482 0.938327 0.726801 0.83173 0.638361 0.903256 0.871796 0.674227 0.664338 0.852023 0.666811 0.636867 0.499581 0.727503 0.396378 0.639014 0.33319 0.397295 -0.0004964 0.353964 -0.0145474 0.667465 0.353262 0.500084 0.25657 0.374036 -0.0145476 0.285401 -0.0202773 0.674931 0.664976 0.363392 0.373202 0.637515 0.500084 0.353262 0.28652 0.359024 0.353964 -0.000496393 0.0237244 0.334024 0.25944 0.0184387 0.0322956 0.500587 0.256845 0.286788 0.148146 0.285675 -0.0202768 0.168439 -0.0142918 0.259697 0.128372 0.0322964 0.0207801 0.149687 -0.0150145 0.0260002 -0.00369227 0.0004964 -0.397295 0.0145474 -0.353964 -0.396378 -0.727503 -0.33319 -0.639014 0.0145476 -0.374036 0.0202773 -0.285401 -0.353262 -0.667465 -0.25657 -0.500084 -0.726801 -0.938327 -0.638361 -0.83173 -0.93867 -1.00386 -0.850482 -0.897655 -0.666811 -0.852023 -0.499581 -0.636867 -0.871796 -0.903256 -0.664338 -0.674227 0.0202768 -0.285675 0.0142918 -0.168439 -0.256845 -0.500587 -0.148146 -0.286788 0.0150145 -0.149687 0.00369227 -0.0260002 -0.128372 -0.259697 -0.0207801 -0.0322964 -0.500084 -0.637515 -0.28652 -0.353262 -0.664976 -0.674931 -0.373202 -0.363392 -0.25944 -0.334024 -0.0322956 -0.0184387 -0.353964 -0.359024 -0.0237244 0.000496395 
SCALARS global_div_diff double 1
LOOKUP_TABLE default
1.61216e-10 1.61216e-10 1.61216e-10 1.61216e-10 1.21177e-10 1.21177e-10 1.21177e-10 1.21177e-10 1.11219e-10 1.11219e-10 1.11219e-10 1.11219e-10 1.18782e-10 1.18782e-10 1.18782e-10 1.18782e-10 2.2518e-10 2.2518e-10 2.2518e-10 2.2518e-10 1.59133e-10 1.59133e-10 1.59133e-10 1.59133e-10 7.6126e-11 7.6126e-11 7.6126e-11 7.6126e-11 2.28949e-11 2.28949e-11 2.28949e-11 2.28949e-11 2.4183e-10 2.4183e-10 2.4183e-10 2.4183e-10 7.66248e-11 7.66248e-11 7.66248e-11 7.66248e-11 1.48884e-10 1.48884e-10 1.48884e-10 1.48884e-10 2.29966e-11 2.29966e-11 2.29966e-11 2.29966e-11 4.58007e-11 4.58007e-11 4.58007e-11 4.58007e-11 1.06393e-11 1.06393e-11 1.06393e-11 1.06393e-11 1.09281e-11 1.09281e-11 1.09281e-11 1.09281e-11 3.48543e-12 3.48543e-12 3.48543e-12 3.48543e-12 1.58826e-10 1.58826e-10 1.58826e-10 1.58826e-10 2.25413e-10 2.25413e-10 2.25413e-10 2.25413e-10 2.35422e-11 2.35422e-11 2.35422e-11 2.35422e-11 7.63961e-11 7.63961e-11 7.63961e-11 7.63961e-11 1.22116e-10 1.22116e-10 1.22116e-10 1.22116e-10 1.65564e-10 1.65564e-10 1.65564e-10 1.65564e-10 1.18674e-10 1.18674e-10 1.18674e-10 1.18674e-10 1.10179e-10 1.10179e-10 1.10179e-10 1.10179e-10 1.08505e-11 1.08505e-11 1.08505e-11 1.08505e-11 4.63358e-11 4.63358e-11 4.63358e-11 4.63358e-11 3.28342e-12 3.28342e-12 3.28342e-12 3.28342e-12 1.15491e-11 1.15491e-11 1.15491e-11 1.15491e-11 7.69482e-11 7.69482e-11 7.69482e-11 7.69482e-11 2.41786e-10 2.41786e-10 2.41786e-10 2.41786e-10 2.37765e-11 2.37765e-11 2.37765e-11 2.37765e-11 1.4915e-10 1.4915e-10 1.4915e-10 1.4915e-10 1.49838e-10 1.49838e-10 1.49838e-10 1.49838e-10 2.3186e-11 2.3186e-11 2.3186e-11 2.3186e-11 2.42156e-10 2.42156e-10 2.42156e-10 2.42156e-10 7.47174e-11 7.47174e-11 7.47174e-11 7.47174e-11 1.11907e-11 1.11907e-11 1.11907e-11 1.11907e-11 3.95856e-12 3.95856e-12 3.95856e-12 3.95856e-12 4.46062e-11 4.46062e-11 4.46062e-11 4.46062e-11 9.73762e-12 9.73762e-12 9.73762e-12 9.73762e-12 1.19852e-10 1.19852e-10 1.19852e-10 1.19852e-10 1.11384e-10 1.11384e-10 1.11384e-10 1.11384e-10 1.78318e-10 1.78318e-10 1.78318e-10 1.78318e-10 1.36192e-10 1.36192e-10 1.36192e-10 1.36192e-10 7.40928e-11 7.40928e-11 7.40928e-11 7.40928e-11 2.31966e-11 2.31966e-11 2.31966e-11 2.31966e-11 2.24957e-10 2.24957e-10 2.24957e-10 2.24957e-10 1.54027e-10 1.54027e-10 1.54027e-10 1.54027e-10 3.73777e-12 3.73777e-12 3.73777e-12 3.73777e-12 1.14488e-11 1.14488e-11 1.14488e-11 1.14488e-11 1.09839e-11 1.09839e-11 1.09839e-11 1.09839e-11 4.50095e-11 4.50095e-11 4.50095e-11 4.50095e-11 2.33942e-11 2.33942e-11 2.33942e-11 2.33942e-11 1.50091e-10 1.50091e-10 1.50091e-10 1.50091e-10 7.49959e-11 7.49959e-11 7.49959e-11 7.49959e-11 2.41834e-10 2.41834e-10 2.41834e-10 2.41834e-10 2.3834e-11 2.3834e-11 2.3834e-11 2.3834e-11 7.41155e-11 7.41155e-11 7.41155e-11 7.41155e-11 1.54458e-10 1.54458e-10 1.54458e-10 1.54458e-10 2.24665e-10 2.24665e-10 2.24665e-10 2.24665e-10 1.11396e-10 1.11396e-10 1.11396e-10 1.11396e-10 1.19837e-10 1.19837e-10 1.19837e-10 1.19837e-10 1.3829e-10 1.3829e-10 1.3829e-10 1.3829e-10 1.7975e-10 1.7975e-10 1.7975e-10 1.7975e-10 
SCALARS cell_div_diff double 1
LOOKUP_TABLE default
1.61216e-10 1.61216e-10 1.61216e-10 1.61216e-10 1.21177e-10 1.21177e-10 1.21177e-10 1.21177e-10 1.11219e-10 1.11219e-10 1.11219e-10 1.11219e-10 1.18782e-10 1.18782e-10 1.18782e-10 1.18782e-10 2.2518e-10 2.2518e-10 2.2518e-10 2.2518e-10 1.59133e-10 1.59133e-10 1.59133e-10 1.59133e-10 7.61263e-11 7.61263e-11 7.61263e-11 7.61263e-11 2.28952e-11 2.28952e-11 2.28952e-11 2.28952e-11 2.4183e-10 2.4183e-10 2.4183e-10 2.4183e-10 7.6625e-11 7.6625e-11 7.6625e-11 7.6625e-11 1.48884e-10 1.48884e-10 1.48884e-10 1.48884e-10 2.29973e-11 2.29973e-11 2.29973e-11 2.29973e-11 4.58009e-11 4.58009e-11 4.58009e-11 4.58009e-11 1.064e-11 1.064e-11 1.064e-11 1.064e-11 1.09272e-11 1.09272e-11 1.09272e-11 1.09272e-11 3.48514e-12 3.48514e-12 3.48514e-12 3.48514e-12 1.58826e-10 1.58826e-10 1.58826e-10 1.58826e-10 2.25414e-10 2.25414e-10 2.25414e-10 2.25414e-10 2.35417e-11 2.35417e-11 2.35417e-11 2.35417e-11 7.63963e-11 7.63963e-11 7.63963e-11 7.63963e-11 1.22116e-10 1.22116e-10 1.22116e-10 1.22116e-10 1.65564e-10 1.65564e-10 1.65564e-10 1.65564e-10 1.18674e-10 1.18674e-10 1.18674e-10 1.18674e-10 1.10179e-10 1.10179e-10 1.10179e-10 1.10179e-10 1.08498e-11 1.08498e-11 1.08498e-11 1.08498e-11 4.63355e-11 4.63355e-11 4.63355e-11 4.63355e-11 3.28299e-12 3.28299e-12 3.28299e-12 3.28299e-12 1.15496e-11 1.15496e-11 1.15496e-11 1.15496e-11 7.69484e-11 7.69484e-11 7.69484e-11 7.69484e-11 2.41786e-10 2.41786e-10 2.41786e-10 2.41786e-10 2.37775e-11 2.37775e-11 2.37775e-11 2.37775e-11 1.4915e-10 1.4915e-10 1.4915e-10 1.4915e-10 1.49838e-10 1.49838e-10 1.49838e-10 1.49838e-10 2.31855e-11 2.31855e-11 2.31855e-11 2.31855e-11 2.42155e-10 2.42155e-10 2.42155e-10 2.42155e-10 7.47175e-11 7.47175e-11 7.47175e-11 7.47175e-11 1.11913e-11 1.11913e-11 1.11913e-11 1.11913e-11 3.95895e-12 3.95895e-12 3.95895e-12 3.95895e-12 4.46065e-11 4.46065e-11 4.46065e-11 4.46065e-11 9.73727e-12 9.73727e-12 9.73727e-12 9.73727e-12 1.19852e-10 1.19852e-10 1.19852e-10 1.19852e-10 1.11384e-10 1.11384e-10 1.11384e-10 1.11384e-10 1.78318e-10 1.78318e-10 1.78318e-10 1.78318e-10 1.36192e-10 1.36192e-10 1.36192e-10 1.36192e-10 7.40926e-11 7.40926e-11 7.40926e-11 7.40926e-11 2.31966e-11 2.31966e-11 2.31966e-11 2.31966e-11 2.24957e-10 2.24957e-10 2.24957e-10 2.24957e-10 1.54027e-10 1.54027e-10 1.54027e-10 1.54027e-10 3.73774e-12 3.73774e-12 3.73774e-12 3.73774e-12 1.14477e-11 1.14477e-11 1.14477e-11 1.14477e-11 1.0985e-11 1.0985e-11 1.0985e-11 1.0985e-11 4.50084e-11 4.50084e-11 4.50084e-11 4.50084e-11 2.33937e-11 2.33937e-11 2.33937e-11 2.33937e-11 1.50091e-10 1.50091e-10 1.50091e-10 1.50091e-10 7.4995e-11 7.4995e-11 7.4995e-11 7.4995e-11 2.41834e-10 2.41834e-10 2.41834e-10 2.41834e-10 2.38346e-11 2.38346e-11 2.38346e-11 2.38346e-11 7.41155e-11 7.41155e-11 7.41155e-11 7.41155e-11 1.54458e-10 1.54458e-10 1.54458e-10 1.54458e-10 2.24665e-10 2.24665e-10 2.24665e-10 2.24665e-10 1.11396e-10 1.11396e-10 1.11396e-10 1.11396e-10 1.19836e-10 1.19836e-10 1.19836e-10 1.19836e-10 1.3829e-10 1.3829e-10 1.3829e-10 1.3829e-10 1.7975e-10 1.7975e-10 1.7975e-10 1.7975e-10 
SCALARS global_l2_diff double 1
LOOKUP_TABLE default
7.78736e-05 7.78736e-05 7.78736e-05 7.78736e-05 0.000248994 0.000248994 0.000248994 0.000248994 0.000248994 0.000248994 0.000248994 0.000248994 0.000159282 0.000159282 0.000159282 0.000159282 0.000512503 0.000512503 0.000512503 0.000512503 0.000700574 0.000700574 0.000700574 0.000700574 0.000245968 0.000245968 0.000245968 0.000245968 0.00038301 0.00038301 0.00038301 0.00038301 0.000512503 0.000512503 0.000512503 0.000512503 0.000245968 0.000245968 0.000245968 0.000245968 0.000700574 0.000700574 0.000700574 0.000700574 0.00038301 0.00038301 0.00038301 0.00038301 0.000311939 0.000311939 0.000311939 0.000311939 0.000590257 0.000590257 0.000590257 0.000590257 0.000590257 0.000590257 0.000590257 0.000590257 0.000984768 0.000984768 0.000984768 0.000984768 0.000700574 0.000700574 0.000700574 0.000700574 0.000512503 0.000512503 0.000512503 0.000512503 0.00038301 0.00038301 0.00038301 0.00038301 0.000245968 0.000245968 0.000245968 0.000245968 0.000248994 0.000248994 0.000248994 0.000248994 7.78736e-05 7.78736e-05 7.78736e-05 7.78736e-05 0.000159282 0.000159282 0.000159282 0.000159282 0.000248994 0.000248994 0.000248994 0.000248994 0.000590257 0.000590257 0.000590257 0.000590257 0.000311939 0.000311939 0.000311939 0.000311939 0.000984768 0.000984768 0.000984768 0.000984768 0.000590257 0.000590257 0.000590257 0.000590257 0.000245968 0.000245968 0.000245968 0.000245968 0.000512503 0.000512503 0.000512503 0.000512503 0.00038301 0.00038301 0.00038301 0.00038301 0.000700574 0.000700574 0.000700574 0.000700574 0.000700574 0.000700574 0.000700574 0.000700574 0.00038301 0.00038301 0.00038301 0.00038301 0.000512503 0.000512503 0.000512503 0.000512503 0.000245968 0.000245968 0.000245968 0.000245968 0.000590257 0.000590257 0.000590257 0.000590257 0.000984768 0.000984768 0.000984768 0.000984768 0.000311939 0.000311939 0.000311939 0.000311939 0.000590257 0.000590257 0.000590257 0.000590257 0.000248994 0.000248994 0.000248994 0.000248994 0.000159282 0.000159282 0.000159282 0.000159282 7.78736e-05 7.78736e-05 7.78736e-05 7.78736e-05 0.000248994 0.000248994 0.000248994 0.000248994 0.000245968 0.000245968 0.000245968 0.000245968 0.00038301 0.00038301 0.00038301 0.00038301 0.000512503 0.000512503 0.000512503 0.000512503 0.000700574 0.000700574 0.000700574 0.000700574 0.000984768 0.000984768 0.000984768 0.000984768 0.000590257 0.000590257 0.000590257 0.000590257 0.000590257 0.000590257 0.000590257 0.000590257 0.000311939 0.000311939 0.000311939 0.000311939 0.00038301 0.00038301 0.00038301 0.00038301 0.000700574 0.000700574 0.000700574 0.000700574 0.000245968 0.000245968 0.000245968 0.000245968 0.000512503 0.000512503 0.000512503 0.000512503 0.00038301 0.00038301 0.00038301 0.00038301 0.000245968 0.000245968 0.000245968 0.000245968 0.000700574 0.000700574 0.000700574 0.000700574 0.000512503 0.000512503 0.000512503 0.000512503 0.000159282 0.000159282 0.000159282 0.000159282 0.000248994 0.000248994 0.000248994 0.000248994 0.000248994 0.000248994 0.000248994 0.000248994 7.78736e-05 7.78736e-05 7.78736e-05 7.78736e-05 
SCALARS global_h1_diff double 1
LOOKUP_TABLE default
0.00544083 0.00544083 0.00544083 0.00544083 0.0178032 0.0178032 0.0178032 0.0178032 0.0178032 0.0178032 0.0178032 0.0178032 0.0110031 0.0110031 0.0110031 0.0110031 0.0368424 0.0368424 0.0368424 0.0368424 0.050411 0.050411 0.050411 0.050411 0.0179022 0.0179022 0.0179022 0.0179022 0.0282507 0.0282507 0.0282507 0.0282507 0.0368424 0.0368424 0.0368424 0.0368424 0.0179022 0.0179022 0.0179022 0.0179022 0.050411 0.050411 0.050411 0.050411 0.0282507 0.0282507 0.0282507 0.0282507 0.0227942 0.0227942 0.0227942 0.0227942 0.0428815 0.0428815 0.0428815 0.0428815 0.0428815 0.0428815 0.0428815 0.0428815 0.0711172 0.0711172 0.0711172 0.0711172 0.050411 0.050411 0.050411 0.050411 0.0368424 0.0368424 0.0368424 0.0368424 0.0282507 0.0282507 0.0282507 0.0282507 0.0179022 0.0179022 0.0179022 0.0179022 0.0178032 0.0178032 0.0178032 0.0178032 0.00544083 0.00544083 0.00544083 0.00544083 0.0110031 0.0110031 0.0110031 0.0110031 0.0178032 0.0178032 0.0178032 0.0178032 0.0428815 0.0428815 0.0428815 0.0428815 0.0227942 0.0227942 0.0227942 0.0227942 0.0711172 0.0711172 0.0711172 0.0711172 0.0428815 0.0428815 0.0428815 0.0428815 0.0179022 0.0179022 0.0179022 0.0179022 0.0368424 0.0368424 0.0368424 0.0368424 0.0282507 0.0282507 0.0282507 0.0282507 0.050411 0.050411 0.050411 0.050411 0.050411 0.050411 0.050411 0.050411 0.0282507 0.0282507 0.0282507 0.0282507 0.0368424 0.0368424 0.0368424 0.0368424 0.0179022 0.0179022 0.0179022 0.0179022 0.0428815 0.0428815 0.0428815 0.0428815 0.0711172 0.0711172 0.0711172 0.0711172 0.0227942 0.0227942 0.0227942 0.0227942 0.0428815 0.0428815 0.0428815 0.0428815 0.0178032 0.0178032 0.0178032 0.0178032 0.0110031 0.0110031 0.0110031 0.0110031 0.00544083 0.00544083 0.00544083 0.00544083 0.0178032 0.0178032 0.0178032 0.0178032 0.0179022 0.0179022 0.0179022 0.0179022 0.0282507 0.0282507 0.0282507 0.0282507 0.0368424 0.0368424 0.0368424 0.0368424 0.050411 0.050411 0.050411 0.050411 0.0711172 0.0711172 0.0711172 0.0711172 0.0428815 0.0428815 0.0428815 0.0428815 0.0428815 0.0428815 0.0428815 0.0428815 0.0227942 0.0227942 0.0227942 0.0227942 0.0282507 0.0282507 0.0282507 0.0282507 0.050411 0.050411 0.050411 0.050411 0.0179022 0.0179022 0.0179022 0.0179022 0.0368424 0.0368424 0.0368424 0.0368424 0.0282507 0.0282507 0.0282507 0.0282507 0.0179022 0.0179022 0.0179022 0.0179022 0.050411 0.050411 0.050411 0.050411 0.0368424 0.0368424 0.0368424 0.0368424 0.0110031 0.0110031 0.0110031 0.0110031 0.0178032 0.0178032 0.0178032 0.0178032 0.0178032 0.0178032 0.0178032 0.0178032 0.00544083 0.00544083 0.00544083 0.00544083 
