# vtk DataFile Version 3.0
#This file was generated by the deal.II library on 2017/9/21 at 12:20:12
ASCII
DATASET UNSTRUCTURED_GRID

POINTS 64 double
0 0 0
0.25 0 0
0 0.25 0
0.25 0.25 0
0.25 0 0
0.5 0 0
0.25 0.25 0
0.5 0.25 0
0 0.25 0
0.25 0.25 0
0 0.5 0
0.25 0.5 0
0.25 0.25 0
0.5 0.25 0
0.25 0.5 0
0.5 0.5 0
0.5 0 0
0.75 0 0
0.5 0.25 0
0.75 0.25 0
0.75 0 0
1 0 0
0.75 0.25 0
1 0.25 0
0.5 0.25 0
0.75 0.25 0
0.5 0.5 0
0.75 0.5 0
0.75 0.25 0
1 0.25 0
0.75 0.5 0
1 0.5 0
0 0.5 0
0.25 0.5 0
0 0.75 0
0.25 0.75 0
0.25 0.5 0
0.5 0.5 0
0.25 0.75 0
0.5 0.75 0
0 0.75 0
0.25 0.75 0
0 1 0
0.25 1 0
0.25 0.75 0
0.5 0.75 0
0.25 1 0
0.5 1 0
0.5 0.5 0
0.75 0.5 0
0.5 0.75 0
0.75 0.75 0
0.75 0.5 0
1 0.5 0
0.75 0.75 0
1 0.75 0
0.5 0.75 0
0.75 0.75 0
0.5 1 0
0.75 1 0
0.75 0.75 0
1 0.75 0
0.75 1 0
1 1 0

CELLS 16 80
4	0	1	3	2
4	4	5	7	6
4	8	9	11	10
4	12	13	15	14
4	16	17	19	18
4	20	21	23	22
4	24	25	27	26
4	28	29	31	30
4	32	33	35	34
4	36	37	39	38
4	40	41	43	42
4	44	45	47	46
4	48	49	51	50
4	52	53	55	54
4	56	57	59	58
4	60	61	63	62

CELL_TYPES 16
 9 9 9 9 9 9 9 9 9 9 9 9 9 9 9 9
POINT_DATA 64
VECTORS velocity double
0 0 0
-0.0195299 0 0
0 0.0195299 0
1.57601 -1.57601 0
-0.0195299 0 0
-0.0393604 0 0
1.57601 -1.57603 0
3.15753 0.0196123 0
0 0.0195299 0
1.57603 -1.57601 0
0 0.0393604 0
-0.0196123 -3.15753 0
1.57603 -1.57603 0
3.15748 0.0196123 0
-0.0196123 -3.15748 0
-0.0399575 0.0399575 0
-0.0393604 0 0
-0.0195299 0 0
3.15753 -0.0196123 0
1.57601 1.57603 0
-0.0195299 0 0
0 0 0
1.57601 1.57601 0
0 -0.0195299 0
3.15748 -0.0196123 0
1.57603 1.57603 0
-0.0399575 -0.0399575 0
-0.0196123 3.15748 0
1.57603 1.57601 0
0 -0.0195299 0
-0.0196123 3.15753 0
0 -0.0393604 0
0 0.0393604 0
0.0196123 -3.15753 0
0 0.0195299 0
-1.57603 -1.57601 0
0.0196123 -3.15748 0
0.0399575 0.0399575 0
-1.57603 -1.57603 0
-3.15748 0.0196123 0
0 0.0195299 0
-1.57601 -1.57601 0
0 0 0
0.0195299 0 0
-1.57601 -1.57603 0
-3.15753 0.0196123 0
0.0195299 0 0
0.0393604 0 0
0.0399575 -0.0399575 0
0.0196123 3.15748 0
-3.15748 -0.0196123 0
-1.57603 1.57603 0
0.0196123 3.15753 0
0 -0.0393604 0
-1.57603 1.57601 0
0 -0.0195299 0
-3.15753 -0.0196123 0
-1.57601 1.57603 0
0.0393604 0 0
0.0195299 0 0
-1.57601 1.57601 0
0 -0.0195299 0
0.0195299 0 0
0 0 0
SCALARS pressure double 1
LOOKUP_TABLE default
-0.00378013 -0.397091 1.10608 0.501314 -0.399612 0.0444031 0.49327 0.124207 1.10323 0.509387 0.958253 0.579412 0.501314 0.116643 0.592342 -0.00378012 -0.0444031 0.399612 -0.124207 -0.49327 0.397091 0.00378013 -0.501314 -1.10608 -0.116643 -0.501314 0.00378012 -0.592342 -0.509387 -1.10323 -0.579412 -0.958253 1.04703 0.833192 0.309373 0.485709 0.830954 -0.00378012 0.501314 -0.121969 0.31722 0.501314 -0.00378013 0.391765 0.516947 -0.129573 0.394246 -0.0443746 0.00378012 -0.830954 0.121969 -0.501314 -0.833192 -1.04703 -0.485709 -0.309373 0.129573 -0.516947 0.0443746 -0.394246 -0.501314 -0.31722 -0.391765 0.00378013 
SCALARS global_div_diff double 1
LOOKUP_TABLE default
5.01392e-10 5.01392e-10 5.01392e-10 5.01392e-10 4.76713e-10 4.76713e-10 4.76713e-10 4.76713e-10 3.56526e-10 3.56526e-10 3.56526e-10 3.56526e-10 3.29767e-10 3.29767e-10 3.29767e-10 3.29767e-10 4.82508e-10 4.82508e-10 4.82508e-10 4.82508e-10 5.02906e-10 5.02906e-10 5.02906e-10 5.02906e-10 3.22902e-10 3.22902e-10 3.22902e-10 3.22902e-10 3.47465e-10 3.47465e-10 3.47465e-10 3.47465e-10 2.46201e-10 2.46201e-10 2.46201e-10 2.46201e-10 3.48491e-10 3.48491e-10 3.48491e-10 3.48491e-10 2.843e-10 2.843e-10 2.843e-10 2.843e-10 4.79809e-10 4.79809e-10 4.79809e-10 4.79809e-10 3.48817e-10 3.48817e-10 3.48817e-10 3.48817e-10 2.41277e-10 2.41277e-10 2.41277e-10 2.41277e-10 4.82196e-10 4.82196e-10 4.82196e-10 4.82196e-10 2.81787e-10 2.81787e-10 2.81787e-10 2.81787e-10 
SCALARS cell_div_diff double 1
LOOKUP_TABLE default
5.01392e-10 5.01392e-10 5.01392e-10 5.01392e-10 4.76713e-10 4.76713e-10 4.76713e-10 4.76713e-10 3.56526e-10 3.56526e-10 3.56526e-10 3.56526e-10 3.29767e-10 3.29767e-10 3.29767e-10 3.29767e-10 4.82508e-10 4.82508e-10 4.82508e-10 4.82508e-10 5.02906e-10 5.02906e-10 5.02906e-10 5.02906e-10 3.22902e-10 3.22902e-10 3.22902e-10 3.22902e-10 3.47465e-10 3.47465e-10 3.47465e-10 3.47465e-10 2.46201e-10 2.46201e-10 2.46201e-10 2.46201e-10 3.48491e-10 3.48491e-10 3.48491e-10 3.48491e-10 2.84299e-10 2.84299e-10 2.84299e-10 2.84299e-10 4.79808e-10 4.79808e-10 4.79808e-10 4.79808e-10 3.48817e-10 3.48817e-10 3.48817e-10 3.48817e-10 2.41278e-10 2.41278e-10 2.41278e-10 2.41278e-10 4.82196e-10 4.82196e-10 4.82196e-10 4.82196e-10 2.81786e-10 2.81786e-10 2.81786e-10 2.81786e-10 
SCALARS global_l2_diff double 1
LOOKUP_TABLE default
0.00374014 0.00374014 0.00374014 0.00374014 0.00818625 0.00818625 0.00818625 0.00818625 0.00818625 0.00818625 0.00818625 0.00818625 0.01106 0.01106 0.01106 0.01106 0.00818625 0.00818625 0.00818625 0.00818625 0.00374014 0.00374014 0.00374014 0.00374014 0.01106 0.01106 0.01106 0.01106 0.00818625 0.00818625 0.00818625 0.00818625 0.00818625 0.00818625 0.00818625 0.00818625 0.01106 0.01106 0.01106 0.01106 0.00374014 0.00374014 0.00374014 0.00374014 0.00818625 0.00818625 0.00818625 0.00818625 0.01106 0.01106 0.01106 0.01106 0.00818625 0.00818625 0.00818625 0.00818625 0.00818625 0.00818625 0.00818625 0.00818625 0.00374014 0.00374014 0.00374014 0.00374014 
SCALARS global_h1_diff double 1
LOOKUP_TABLE default
0.118697 0.118697 0.118697 0.118697 0.280437 0.280437 0.280437 0.280437 0.280437 0.280437 0.280437 0.280437 0.379314 0.379314 0.379314 0.379314 0.280437 0.280437 0.280437 0.280437 0.118697 0.118697 0.118697 0.118697 0.379314 0.379314 0.379314 0.379314 0.280437 0.280437 0.280437 0.280437 0.280437 0.280437 0.280437 0.280437 0.379314 0.379314 0.379314 0.379314 0.118697 0.118697 0.118697 0.118697 0.280437 0.280437 0.280437 0.280437 0.379314 0.379314 0.379314 0.379314 0.280437 0.280437 0.280437 0.280437 0.280437 0.280437 0.280437 0.280437 0.118697 0.118697 0.118697 0.118697 
