# vtk DataFile Version 3.0
#This file was generated by the deal.II library on 2017/9/21 at 12:23:08
ASCII
DATASET UNSTRUCTURED_GRID

POINTS 16384 double
0 0 0
0.015625 0 0
0 0.015625 0
0.015625 0.015625 0
0.015625 0 0
0.03125 0 0
0.015625 0.015625 0
0.03125 0.015625 0
0 0.015625 0
0.015625 0.015625 0
0 0.03125 0
0.015625 0.03125 0
0.015625 0.015625 0
0.03125 0.015625 0
0.015625 0.03125 0
0.03125 0.03125 0
0.03125 0 0
0.046875 0 0
0.03125 0.015625 0
0.046875 0.015625 0
0.046875 0 0
0.0625 0 0
0.046875 0.015625 0
0.0625 0.015625 0
0.03125 0.015625 0
0.046875 0.015625 0
0.03125 0.03125 0
0.046875 0.03125 0
0.046875 0.015625 0
0.0625 0.015625 0
0.046875 0.03125 0
0.0625 0.03125 0
0 0.03125 0
0.015625 0.03125 0
0 0.046875 0
0.015625 0.046875 0
0.015625 0.03125 0
0.03125 0.03125 0
0.015625 0.046875 0
0.03125 0.046875 0
0 0.046875 0
0.015625 0.046875 0
0 0.0625 0
0.015625 0.0625 0
0.015625 0.046875 0
0.03125 0.046875 0
0.015625 0.0625 0
0.03125 0.0625 0
0.03125 0.03125 0
0.046875 0.03125 0
0.03125 0.046875 0
0.046875 0.046875 0
0.046875 0.03125 0
0.0625 0.03125 0
0.046875 0.046875 0
0.0625 0.046875 0
0.03125 0.046875 0
0.046875 0.046875 0
0.03125 0.0625 0
0.046875 0.0625 0
0.046875 0.046875 0
0.0625 0.046875 0
0.046875 0.0625 0
0.0625 0.0625 0
0.0625 0 0
0.078125 0 0
0.0625 0.015625 0
0.078125 0.015625 0
0.078125 0 0
0.09375 0 0
0.078125 0.015625 0
0.09375 0.015625 0
0.0625 0.015625 0
0.078125 0.015625 0
0.0625 0.03125 0
0.078125 0.03125 0
0.078125 0.015625 0
0.09375 0.015625 0
0.078125 0.03125 0
0.09375 0.03125 0
0.09375 0 0
0.109375 0 0
0.09375 0.015625 0
0.109375 0.015625 0
0.109375 0 0
0.125 0 0
0.109375 0.015625 0
0.125 0.015625 0
0.09375 0.015625 0
0.109375 0.015625 0
0.09375 0.03125 0
0.109375 0.03125 0
0.109375 0.015625 0
0.125 0.015625 0
0.109375 0.03125 0
0.125 0.03125 0
0.0625 0.03125 0
0.078125 0.03125 0
0.0625 0.046875 0
0.078125 0.046875 0
0.078125 0.03125 0
0.09375 0.03125 0
0.078125 0.046875 0
0.09375 0.046875 0
0.0625 0.046875 0
0.078125 0.046875 0
0.0625 0.0625 0
0.078125 0.0625 0
0.078125 0.046875 0
0.09375 0.046875 0
0.078125 0.0625 0
0.09375 0.0625 0
0.09375 0.03125 0
0.109375 0.03125 0
0.09375 0.046875 0
0.109375 0.046875 0
0.109375 0.03125 0
0.125 0.03125 0
0.109375 0.046875 0
0.125 0.046875 0
0.09375 0.046875 0
0.109375 0.046875 0
0.09375 0.0625 0
0.109375 0.0625 0
0.109375 0.046875 0
0.125 0.046875 0
0.109375 0.0625 0
0.125 0.0625 0
0 0.0625 0
0.015625 0.0625 0
0 0.078125 0
0.015625 0.078125 0
0.015625 0.0625 0
0.03125 0.0625 0
0.015625 0.078125 0
0.03125 0.078125 0
0 0.078125 0
0.015625 0.078125 0
0 0.09375 0
0.015625 0.09375 0
0.015625 0.078125 0
0.03125 0.078125 0
0.015625 0.09375 0
0.03125 0.09375 0
0.03125 0.0625 0
0.046875 0.0625 0
0.03125 0.078125 0
0.046875 0.078125 0
0.046875 0.0625 0
0.0625 0.0625 0
0.046875 0.078125 0
0.0625 0.078125 0
0.03125 0.078125 0
0.046875 0.078125 0
0.03125 0.09375 0
0.046875 0.09375 0
0.046875 0.078125 0
0.0625 0.078125 0
0.046875 0.09375 0
0.0625 0.09375 0
0 0.09375 0
0.015625 0.09375 0
0 0.109375 0
0.015625 0.109375 0
0.015625 0.09375 0
0.03125 0.09375 0
0.015625 0.109375 0
0.03125 0.109375 0
0 0.109375 0
0.015625 0.109375 0
0 0.125 0
0.015625 0.125 0
0.015625 0.109375 0
0.03125 0.109375 0
0.015625 0.125 0
0.03125 0.125 0
0.03125 0.09375 0
0.046875 0.09375 0
0.03125 0.109375 0
0.046875 0.109375 0
0.046875 0.09375 0
0.0625 0.09375 0
0.046875 0.109375 0
0.0625 0.109375 0
0.03125 0.109375 0
0.046875 0.109375 0
0.03125 0.125 0
0.046875 0.125 0
0.046875 0.109375 0
0.0625 0.109375 0
0.046875 0.125 0
0.0625 0.125 0
0.0625 0.0625 0
0.078125 0.0625 0
0.0625 0.078125 0
0.078125 0.078125 0
0.078125 0.0625 0
0.09375 0.0625 0
0.078125 0.078125 0
0.09375 0.078125 0
0.0625 0.078125 0
0.078125 0.078125 0
0.0625 0.09375 0
0.078125 0.09375 0
0.078125 0.078125 0
0.09375 0.078125 0
0.078125 0.09375 0
0.09375 0.09375 0
0.09375 0.0625 0
0.109375 0.0625 0
0.09375 0.078125 0
0.109375 0.078125 0
0.109375 0.0625 0
0.125 0.0625 0
0.109375 0.078125 0
0.125 0.078125 0
0.09375 0.078125 0
0.109375 0.078125 0
0.09375 0.09375 0
0.109375 0.09375 0
0.109375 0.078125 0
0.125 0.078125 0
0.109375 0.09375 0
0.125 0.09375 0
0.0625 0.09375 0
0.078125 0.09375 0
0.0625 0.109375 0
0.078125 0.109375 0
0.078125 0.09375 0
0.09375 0.09375 0
0.078125 0.109375 0
0.09375 0.109375 0
0.0625 0.109375 0
0.078125 0.109375 0
0.0625 0.125 0
0.078125 0.125 0
0.078125 0.109375 0
0.09375 0.109375 0
0.078125 0.125 0
0.09375 0.125 0
0.09375 0.09375 0
0.109375 0.09375 0
0.09375 0.109375 0
0.109375 0.109375 0
0.109375 0.09375 0
0.125 0.09375 0
0.109375 0.109375 0
0.125 0.109375 0
0.09375 0.109375 0
0.109375 0.109375 0
0.09375 0.125 0
0.109375 0.125 0
0.109375 0.109375 0
0.125 0.109375 0
0.109375 0.125 0
0.125 0.125 0
0.125 0 0
0.140625 0 0
0.125 0.015625 0
0.140625 0.015625 0
0.140625 0 0
0.15625 0 0
0.140625 0.015625 0
0.15625 0.015625 0
0.125 0.015625 0
0.140625 0.015625 0
0.125 0.03125 0
0.140625 0.03125 0
0.140625 0.015625 0
0.15625 0.015625 0
0.140625 0.03125 0
0.15625 0.03125 0
0.15625 0 0
0.171875 0 0
0.15625 0.015625 0
0.171875 0.015625 0
0.171875 0 0
0.1875 0 0
0.171875 0.015625 0
0.1875 0.015625 0
0.15625 0.015625 0
0.171875 0.015625 0
0.15625 0.03125 0
0.171875 0.03125 0
0.171875 0.015625 0
0.1875 0.015625 0
0.171875 0.03125 0
0.1875 0.03125 0
0.125 0.03125 0
0.140625 0.03125 0
0.125 0.046875 0
0.140625 0.046875 0
0.140625 0.03125 0
0.15625 0.03125 0
0.140625 0.046875 0
0.15625 0.046875 0
0.125 0.046875 0
0.140625 0.046875 0
0.125 0.0625 0
0.140625 0.0625 0
0.140625 0.046875 0
0.15625 0.046875 0
0.140625 0.0625 0
0.15625 0.0625 0
0.15625 0.03125 0
0.171875 0.03125 0
0.15625 0.046875 0
0.171875 0.046875 0
0.171875 0.03125 0
0.1875 0.03125 0
0.171875 0.046875 0
0.1875 0.046875 0
0.15625 0.046875 0
0.171875 0.046875 0
0.15625 0.0625 0
0.171875 0.0625 0
0.171875 0.046875 0
0.1875 0.046875 0
0.171875 0.0625 0
0.1875 0.0625 0
0.1875 0 0
0.203125 0 0
0.1875 0.015625 0
0.203125 0.015625 0
0.203125 0 0
0.21875 0 0
0.203125 0.015625 0
0.21875 0.015625 0
0.1875 0.015625 0
0.203125 0.015625 0
0.1875 0.03125 0
0.203125 0.03125 0
0.203125 0.015625 0
0.21875 0.015625 0
0.203125 0.03125 0
0.21875 0.03125 0
0.21875 0 0
0.234375 0 0
0.21875 0.015625 0
0.234375 0.015625 0
0.234375 0 0
0.25 0 0
0.234375 0.015625 0
0.25 0.015625 0
0.21875 0.015625 0
0.234375 0.015625 0
0.21875 0.03125 0
0.234375 0.03125 0
0.234375 0.015625 0
0.25 0.015625 0
0.234375 0.03125 0
0.25 0.03125 0
0.1875 0.03125 0
0.203125 0.03125 0
0.1875 0.046875 0
0.203125 0.046875 0
0.203125 0.03125 0
0.21875 0.03125 0
0.203125 0.046875 0
0.21875 0.046875 0
0.1875 0.046875 0
0.203125 0.046875 0
0.1875 0.0625 0
0.203125 0.0625 0
0.203125 0.046875 0
0.21875 0.046875 0
0.203125 0.0625 0
0.21875 0.0625 0
0.21875 0.03125 0
0.234375 0.03125 0
0.21875 0.046875 0
0.234375 0.046875 0
0.234375 0.03125 0
0.25 0.03125 0
0.234375 0.046875 0
0.25 0.046875 0
0.21875 0.046875 0
0.234375 0.046875 0
0.21875 0.0625 0
0.234375 0.0625 0
0.234375 0.046875 0
0.25 0.046875 0
0.234375 0.0625 0
0.25 0.0625 0
0.125 0.0625 0
0.140625 0.0625 0
0.125 0.078125 0
0.140625 0.078125 0
0.140625 0.0625 0
0.15625 0.0625 0
0.140625 0.078125 0
0.15625 0.078125 0
0.125 0.078125 0
0.140625 0.078125 0
0.125 0.09375 0
0.140625 0.09375 0
0.140625 0.078125 0
0.15625 0.078125 0
0.140625 0.09375 0
0.15625 0.09375 0
0.15625 0.0625 0
0.171875 0.0625 0
0.15625 0.078125 0
0.171875 0.078125 0
0.171875 0.0625 0
0.1875 0.0625 0
0.171875 0.078125 0
0.1875 0.078125 0
0.15625 0.078125 0
0.171875 0.078125 0
0.15625 0.09375 0
0.171875 0.09375 0
0.171875 0.078125 0
0.1875 0.078125 0
0.171875 0.09375 0
0.1875 0.09375 0
0.125 0.09375 0
0.140625 0.09375 0
0.125 0.109375 0
0.140625 0.109375 0
0.140625 0.09375 0
0.15625 0.09375 0
0.140625 0.109375 0
0.15625 0.109375 0
0.125 0.109375 0
0.140625 0.109375 0
0.125 0.125 0
0.140625 0.125 0
0.140625 0.109375 0
0.15625 0.109375 0
0.140625 0.125 0
0.15625 0.125 0
0.15625 0.09375 0
0.171875 0.09375 0
0.15625 0.109375 0
0.171875 0.109375 0
0.171875 0.09375 0
0.1875 0.09375 0
0.171875 0.109375 0
0.1875 0.109375 0
0.15625 0.109375 0
0.171875 0.109375 0
0.15625 0.125 0
0.171875 0.125 0
0.171875 0.109375 0
0.1875 0.109375 0
0.171875 0.125 0
0.1875 0.125 0
0.1875 0.0625 0
0.203125 0.0625 0
0.1875 0.078125 0
0.203125 0.078125 0
0.203125 0.0625 0
0.21875 0.0625 0
0.203125 0.078125 0
0.21875 0.078125 0
0.1875 0.078125 0
0.203125 0.078125 0
0.1875 0.09375 0
0.203125 0.09375 0
0.203125 0.078125 0
0.21875 0.078125 0
0.203125 0.09375 0
0.21875 0.09375 0
0.21875 0.0625 0
0.234375 0.0625 0
0.21875 0.078125 0
0.234375 0.078125 0
0.234375 0.0625 0
0.25 0.0625 0
0.234375 0.078125 0
0.25 0.078125 0
0.21875 0.078125 0
0.234375 0.078125 0
0.21875 0.09375 0
0.234375 0.09375 0
0.234375 0.078125 0
0.25 0.078125 0
0.234375 0.09375 0
0.25 0.09375 0
0.1875 0.09375 0
0.203125 0.09375 0
0.1875 0.109375 0
0.203125 0.109375 0
0.203125 0.09375 0
0.21875 0.09375 0
0.203125 0.109375 0
0.21875 0.109375 0
0.1875 0.109375 0
0.203125 0.109375 0
0.1875 0.125 0
0.203125 0.125 0
0.203125 0.109375 0
0.21875 0.109375 0
0.203125 0.125 0
0.21875 0.125 0
0.21875 0.09375 0
0.234375 0.09375 0
0.21875 0.109375 0
0.234375 0.109375 0
0.234375 0.09375 0
0.25 0.09375 0
0.234375 0.109375 0
0.25 0.109375 0
0.21875 0.109375 0
0.234375 0.109375 0
0.21875 0.125 0
0.234375 0.125 0
0.234375 0.109375 0
0.25 0.109375 0
0.234375 0.125 0
0.25 0.125 0
0 0.125 0
0.015625 0.125 0
0 0.140625 0
0.015625 0.140625 0
0.015625 0.125 0
0.03125 0.125 0
0.015625 0.140625 0
0.03125 0.140625 0
0 0.140625 0
0.015625 0.140625 0
0 0.15625 0
0.015625 0.15625 0
0.015625 0.140625 0
0.03125 0.140625 0
0.015625 0.15625 0
0.03125 0.15625 0
0.03125 0.125 0
0.046875 0.125 0
0.03125 0.140625 0
0.046875 0.140625 0
0.046875 0.125 0
0.0625 0.125 0
0.046875 0.140625 0
0.0625 0.140625 0
0.03125 0.140625 0
0.046875 0.140625 0
0.03125 0.15625 0
0.046875 0.15625 0
0.046875 0.140625 0
0.0625 0.140625 0
0.046875 0.15625 0
0.0625 0.15625 0
0 0.15625 0
0.015625 0.15625 0
0 0.171875 0
0.015625 0.171875 0
0.015625 0.15625 0
0.03125 0.15625 0
0.015625 0.171875 0
0.03125 0.171875 0
[...]
POINT_DATA 16384
VECTORS velocity double
0 0 0
-2.65217e-08 0 0
0 2.69628e-08 0
0.000741409 -0.00074141 0
-2.65217e-08 0 0
-1.07753e-07 0 0
0.000741409 -0.000741358 0
0.0029585 -0.00147565 0
0 2.69628e-08 0
0.000741357 -0.00074141 0
0 1.07811e-07 0
0.00147565 -0.0029585 0
0.000741357 -0.000741358 0
0.00295829 -0.00147565 0
0.00147565 -0.00295829 0
0.0058884 -0.0058884 0
-1.07753e-07 0 0
-2.41963e-07 0 0
0.0029585 -0.0014756 0
0.00662992 -0.00219568 0
-2.41963e-07 0 0
-4.28016e-07 0 0
0.00662992 -0.00219563 0
0.0117203 -0.00289457 0
0.00295829 -0.0014756 0
0.00662944 -0.00219568 0
0.0058884 -0.00588819 0
0.0131958 -0.0087616 0
0.00662944 -0.00219563 0
0.0117195 -0.00289457 0
0.0131958 -0.00876139 0
0.0233273 -0.0115504 0
0 1.07811e-07 0
0.0014756 -0.0029585 0
0 2.41973e-07 0
0.00219568 -0.00662992 0
0.0014756 -0.00295829 0
0.00588819 -0.0058884 0
0.00219568 -0.00662944 0
0.0087616 -0.0131958 0
0 2.41973e-07 0
0.00219563 -0.00662992 0
0 4.28018e-07 0
0.00289457 -0.0117203 0
0.00219563 -0.00662944 0
0.00876139 -0.0131958 0
0.00289457 -0.0117195 0
0.0115504 -0.0233273 0
0.00588819 -0.00588819 0
0.0131953 -0.0087616 0
0.0087616 -0.0131953 0
0.0196345 -0.0196345 0
0.0131953 -0.00876139 0
0.0233265 -0.0115504 0
0.0196345 -0.019634 0
0.0347097 -0.0258842 0
0.00876139 -0.0131953 0
0.019634 -0.0196345 0
0.0115504 -0.0233265 0
0.0258842 -0.0347097 0
0.019634 -0.019634 0
0.0347089 -0.0258842 0
0.0258842 -0.0347089 0
0.0457578 -0.0457578 0
-4.28016e-07 0 0
-6.64135e-07 0 0
0.0117203 -0.00289452 0
0.0181807 -0.00356558 0
-6.64135e-07 0 0
-9.48051e-07 0 0
0.0181807 -0.00356553 0
0.0259487 -0.00420225 0
0.0117195 -0.00289452 0
0.0181793 -0.00356558 0
0.0233273 -0.0115502 0
0.0361856 -0.014228 0
0.0181793 -0.00356553 0
0.0259468 -0.00420225 0
0.0361856 -0.0142278 0
0.0516466 -0.0167685 0
-9.48051e-07 0 0
-1.27703e-06 0 0
0.0259487 -0.00420221 0
0.0349497 -0.00479845 0
-1.27703e-06 0 0
-1.6479e-06 0 0
0.0349497 -0.00479841 0
0.0450969 -0.00534844 0
0.0259468 -0.00420221 0
0.0349472 -0.00479845 0
0.0516466 -0.0167684 0
0.0695616 -0.0191476 0
0.0349472 -0.00479841 0
0.0450937 -0.00534844 0
0.0695616 -0.0191474 0
0.0897579 -0.0213423 0
0.0233265 -0.0115502 0
0.0361842 -0.014228 0
0.0347097 -0.0258837 0
0.053842 -0.0318845 0
0.0361842 -0.0142278 0
0.0516447 -0.0167685 0
0.053842 -0.0318841 0
0.0768471 -0.0375778 0
0.0347089 -0.0258837 0
0.0538407 -0.0318845 0
0.0457578 -0.045757 0
0.0709798 -0.0563652 0
0.0538407 -0.0318841 0
0.0768453 -0.0375778 0
0.0709798 -0.0563644 0
0.101307 -0.0664298 0
0.0516447 -0.0167684 0
0.0695591 -0.0191476 0
0.0768471 -0.0375774 0
0.103503 -0.0429093 0
0.0695591 -0.0191474 0
0.0897547 -0.0213423 0
0.103503 -0.0429089 0
0.133554 -0.0478274 0
0.0768453 -0.0375774 0
0.103501 -0.0429093 0
0.101307 -0.066429 0
0.136449 -0.0758546 0
0.103501 -0.0429089 0
0.133551 -0.0478274 0
0.136449 -0.0758539 0
0.176065 -0.0845489 0
0 4.28018e-07 0
0.00289452 -0.0117203 0
0 6.64136e-07 0
0.00356558 -0.0181807 0
0.00289452 -0.0117195 0
0.0115502 -0.0233273 0
0.00356558 -0.0181793 0
0.014228 -0.0361856 0
0 6.64136e-07 0
0.00356553 -0.0181807 0
0 9.48051e-07 0
0.00420225 -0.0259487 0
0.00356553 -0.0181793 0
0.0142278 -0.0361856 0
0.00420225 -0.0259468 0
0.0167685 -0.0516466 0
0.0115502 -0.0233265 0
0.0258837 -0.0347097 0
0.014228 -0.0361842 0
0.0318845 -0.053842 0
0.0258837 -0.0347089 0
0.045757 -0.0457578 0
0.0318845 -0.0538407 0
0.0563652 -0.0709798 0
0.0142278 -0.0361842 0
0.0318841 -0.053842 0
0.0167685 -0.0516447 0
0.0375778 -0.0768471 0
0.0318841 -0.0538407 0
0.0563644 -0.0709798 0
0.0375778 -0.0768453 0
0.0664298 -0.101307 0
0 9.48051e-07 0
0.00420221 -0.0259487 0
0 1.27703e-06 0
0.00479845 -0.0349497 0
0.00420221 -0.0259468 0
0.0167684 -0.0516466 0
0.00479845 -0.0349472 0
0.0191476 -0.0695616 0
0 1.27703e-06 0
0.00479841 -0.0349497 0
0 1.6479e-06 0
0.00534844 -0.0450969 0
0.00479841 -0.0349472 0
0.0191474 -0.0695616 0
0.00534844 -0.0450937 0
0.0213423 -0.0897579 0
0.0167684 -0.0516447 0
0.0375774 -0.0768471 0
0.0191476 -0.0695591 0
0.0429093 -0.103503 0
0.0375774 -0.0768453 0
0.066429 -0.101307 0
0.0429093 -0.103501 0
0.0758546 -0.136449 0
0.0191474 -0.0695591 0
0.0429089 -0.103503 0
0.0213423 -0.0897547 0
0.0478274 -0.133554 0
0.0429089 -0.103501 0
0.0758539 -0.136449 0
0.0478274 -0.133551 0
0.0845489 -0.176065 0
0.045757 -0.045757 0
0.0709786 -0.0563652 0
0.0563652 -0.0709786 0
0.0874342 -0.0874342 0
0.0709786 -0.0563644 0
0.101306 -0.0664298 0
0.0874342 -0.087433 0
0.124792 -0.103046 0
0.0563644 -0.0709786 0
0.087433 -0.0874342 0
0.0664298 -0.101306 0
0.103046 -0.124792 0
0.087433 -0.087433 0
0.124791 -0.103046 0
0.103046 -0.124791 0
0.147075 -0.147075 0
0.101306 -0.066429 0
0.136446 -0.0758546 0
0.124792 -0.103045 0
0.16808 -0.117666 0
0.136446 -0.0758539 0
0.176062 -0.0845489 0
0.16808 -0.117665 0
0.21688 -0.131153 0
0.124791 -0.103045 0
0.168077 -0.117666 0
0.147075 -0.147074 0
0.198092 -0.167942 0
0.168077 -0.117665 0
0.216877 -0.131153 0
0.198092 -0.16794 0
0.255606 -0.187191 0
0.066429 -0.101306 0
0.103045 -0.124792 0
0.0758546 -0.136446 0
0.117666 -0.16808 0
0.103045 -0.124791 0
0.147074 -0.147075 0
0.117666 -0.168077 0
0.167942 -0.198092 0
0.0758539 -0.136446 0
0.117665 -0.16808 0
0.0845489 -0.176062 0
0.131153 -0.21688 0
0.117665 -0.168077 0
0.16794 -0.198092 0
0.131153 -0.216877 0
0.187191 -0.255606 0
0.147074 -0.147074 0
0.19809 -0.167942 0
0.167942 -0.19809 0
0.226197 -0.226197 0
0.19809 -0.16794 0
0.255603 -0.187191 0
0.226197 -0.226195 0
0.29187 -0.252123 0
0.16794 -0.19809 0
0.226195 -0.226197 0
0.187191 -0.255603 0
0.252123 -0.29187 0
0.226195 -0.226195 0
0.291868 -0.252123 0
0.252123 -0.291868 0
0.325324 -0.325324 0
-1.6479e-06 0 0
-2.05709e-06 0 0
0.0450969 -0.00534841 0
0.0562927 -0.00584692 0
-2.05709e-06 0 0
-2.50067e-06 0 0
0.0562927 -0.00584689 0
0.0684291 -0.0062891 0
0.0450937 -0.00534841 0
0.0562886 -0.00584692 0
0.0897579 -0.0213421 0
0.112041 -0.0233314 0
0.0562886 -0.00584689 0
0.0684241 -0.0062891 0
0.112041 -0.0233313 0
0.136197 -0.0250958 0
-2.50067e-06 0 0
-2.97436e-06 0 0
0.0684291 -0.00628907 0
0.0813894 -0.0066707 0
-2.97436e-06 0 0
-3.47359e-06 0 0
0.0813894 -0.00667068 0
0.0950486 -0.00698806 0
0.0684241 -0.00628907 0
0.0813834 -0.0066707 0
0.136197 -0.0250957 0
0.161992 -0.0266186 0
0.0813834 -0.00667068 0
0.0950417 -0.00698806 0
0.161992 -0.0266185 0
0.189178 -0.027885 0
0.0897547 -0.0213421 0
0.112037 -0.0233314 0
0.133554 -0.0478271 0
0.166711 -0.052285 0
0.112037 -0.0233313 0
0.136192 -0.0250958 0
0.166711 -0.0522847 0
0.202653 -0.056239 0
0.133551 -0.0478271 0
0.166707 -0.052285 0
0.176065 -0.0845483 0
0.219775 -0.0924289 0
0.166707 -0.0522847 0
0.202648 -0.056239 0
0.219775 -0.0924284 0
0.267157 -0.0994189 0
0.136192 -0.0250957 0
0.161986 -0.0266186 0
0.202653 -0.0562388 0
0.241034 -0.0596515 0
0.161986 -0.0266185 0
0.189172 -0.027885 0
0.241034 -0.0596512 0
0.281486 -0.0624894 0
0.202648 -0.0562388 0
0.241029 -0.0596515 0
0.267157 -0.0994184 0
0.317756 -0.105451 0
0.241029 -0.0596512 0
0.28148 -0.0624894 0
0.317756 -0.105451 0
0.371083 -0.110468 0
-3.47359e-06 0 0
-3.99356e-06 0 0
0.0950486 -0.00698804 0
0.109275 -0.00723813 0
-3.99356e-06 0 0
-4.52926e-06 0 0
0.109275 -0.00723811 0
0.123932 -0.00741848 0
0.0950417 -0.00698804 0
0.109267 -0.00723813 0
0.189178 -0.0278849 0
0.217494 -0.0288828 0
0.109267 -0.00723811 0
0.123923 -0.00741848 0
0.217494 -0.0288827 0
0.246667 -0.0296025 0
-4.52926e-06 0 0
-5.07554e-06 0 0
0.123932 -0.00741847 0
0.138879 -0.00752739 0
-5.07554e-06 0 0
-5.62713e-06 0 0
0.138879 -0.00752739 0
0.153971 -0.00756381 0
0.123923 -0.00741847 0
0.138869 -0.00752739 0
0.246667 -0.0296024 0
0.276415 -0.0300371 0
0.138869 -0.00752739 0
0.153959 -0.00756381 0
0.276415 -0.0300371 0
0.306453 -0.0301824 0
0.189172 -0.0278849 0
0.217486 -0.0288828 0
0.281486 -0.0624892 0
0.323619 -0.0647256 0
0.217486 -0.0288827 0
0.246658 -0.0296025 0
0.323619 -0.0647254 0
0.367026 -0.0663384 0
0.28148 -0.0624892 0
0.323611 -0.0647256 0
0.371083 -0.110468 0
0.426626 -0.114421 0
0.323611 -0.0647254 0
0.367017 -0.0663384 0
0.426626 -0.114421 0
0.48385 -0.117272 0
0.246658 -0.0296024 0
0.276405 -0.0300371 0
0.367026 -0.0663383 0
0.411289 -0.0673123 0
0.276405 -0.0300371 0
0.306442 -0.0301824 0
0.411289 -0.0673122 0
0.455984 -0.067638 0
0.367017 -0.0663383 0
0.41128 -0.0673123 0
0.48385 -0.117272 0
0.542203 -0.118994 0
0.41128 -0.0673122 0
0.455973 -0.067638 0
0.542203 -0.118994 0
0.601123 -0.11957 0
0.176062 -0.0845483 0
0.219771 -0.0924289 0
0.21688 -0.131152 0
0.270722 -0.143377 0
0.219771 -0.0924284 0
0.267152 -0.0994189 0
0.270722 -0.143376 0
0.329088 -0.154219 0
0.216877 -0.131152 0
0.270718 -0.143377 0
0.255606 -0.18719 0
0.319062 -0.204637 0
0.270718 -0.143376 0
0.329084 -0.154219 0
0.319062 -0.204636 0
0.38785 -0.220113 0
0.267152 -0.0994184 0
0.31775 -0.105451 0
0.329088 -0.154219 0
0.391417 -0.163577 0
0.31775 -0.105451 0
0.371077 -0.110468 0
0.391417 -0.163576 0
0.457106 -0.171359 0
0.329084 -0.154219 0
0.391411 -0.163577 0
0.38785 -0.220112 0
0.461308 -0.233469 0
0.391411 -0.163576 0
0.4571 -0.171359 0
0.461308 -0.233468 0
0.538727 -0.244576 0
0.255603 -0.18719 0
0.319059 -0.204637 0
0.29187 -0.252121 0
0.36433 -0.275621 0
0.319059 -0.204636 0
0.387846 -0.220113 0
0.36433 -0.275619 0
0.442877 -0.296465 0
0.291868 -0.252121 0
0.364326 -0.275621 0
0.325324 -0.325321 0
0.406088 -0.355644 0
0.364326 -0.275619 0
0.442874 -0.296465 0
0.406088 -0.355642 0
0.493639 -0.38254 0
0.387846 -0.220112 0
0.461303 -0.233469 0
0.442877 -0.296463 0
0.526757 -0.314453 0
0.461303 -0.233468 0
0.538722 -0.244576 0
0.526757 -0.314452 0
0.61516 -0.329414 0
0.442874 -0.296463 0
0.526752 -0.314453 0
0.493639 -0.382538 0
0.587133 -0.405751 0
0.526752 -0.314452 0
0.615155 -0.329414 0
0.587133 -0.40575 0
0.685669 -0.425055 0
0.371077 -0.110468 0
0.426619 -0.114421 0
0.457106 -0.171359 0
0.525525 -0.177491 0
0.426619 -0.114421 0
0.483841 -0.117272 0
0.525525 -0.177491 0
0.596014 -0.181914 0
0.4571 -0.171359 0
0.525518 -0.177491 0
0.538727 -0.244575 0
0.619363 -0.253328 0
0.525518 -0.177491 0
0.596006 -0.181914 0
0.619363 -0.253328 0
0.702439 -0.25964 0
0.483841 -0.117272 0
0.542193 -0.118994 0
0.596014 -0.181914 0
0.667894 -0.184585 0
0.542193 -0.118994 0
0.601113 -0.11957 0
0.667894 -0.184584 0
0.740473 -0.185478 0
0.596006 -0.181914 0
0.667885 -0.184585 0
0.702439 -0.25964 0
0.787154 -0.263452 0
0.667885 -0.184584 0
0.740463 -0.185478 0
0.787154 -0.263452 0
0.872692 -0.264727 0
0.538722 -0.244575 0
0.619357 -0.253328 0
0.61516 -0.329413 0
0.707236 -0.341202 0
0.619357 -0.253328 0
0.702431 -0.25964 0
0.707236 -0.341201 0
0.802098 -0.349704 0
0.615155 -0.329413 0
0.70723 -0.341202 0
0.685669 -0.425054 0
0.788298 -0.440265 0
0.70723 -0.341201 0
0.802091 -0.349704 0
0.788298 -0.440264 0
0.894033 -0.451236 0
0.702431 -0.25964 0
0.787145 -0.263452 0
0.802098 -0.349703 0
0.898832 -0.354838 0
0.787145 -0.263452 0
0.872683 -0.264727 0
0.898832 -0.354837 0
0.996507 -0.356554 0
0.802091 -0.349703 0
0.898824 -0.354838 0
0.894033 -0.451235 0
1.00185 -0.45786 0
0.898824 -0.354837 0
0.996498 -0.356554 0
1.00185 -0.45786 0
1.11072 -0.460076 0
0 1.6479e-06 0
0.00534841 -0.0450969 0
0 2.05709e-06 0
0.00584692 -0.0562927 0
0.00534841 -0.0450937 0
0.0213421 -0.0897579 0
0.00584692 -0.0562886 0
0.0233314 -0.112041 0
0 2.05709e-06 0
0.00584689 -0.0562927 0
0 2.50067e-06 0
0.0062891 -0.0684291 0
0.00584689 -0.0562886 0
0.0233313 -0.112041 0
0.0062891 -0.0684241 0
0.0250958 -0.136197 0
0.0213421 -0.0897547 0
0.0478271 -0.133554 0
0.0233314 -0.112037 0
0.052285 -0.166711 0
0.0478271 -0.133551 0
0.0845483 -0.176065 0
0.052285 -0.166707 0
0.0924289 -0.219775 0
0.0233313 -0.112037 0
0.0522847 -0.166711 0
0.0250958 -0.136192 0
0.056239 -0.202653 0
0.0522847 -0.166707 0
0.0924284 -0.219775 0
0.056239 -0.202648 0
0.0994189 -0.267157 0
0 2.50067e-06 0
0.00628907 -0.0684291 0
0 2.97436e-06 0
0.0066707 -0.0813894 0
0.00628907 -0.0684241 0
0.0250957 -0.136197 0
0.0066707 -0.0813834 0
0.0266186 -0.161992 0
0 2.97436e-06 0
0.00667068 -0.0813894 0
0 3.47359e-06 0
0.00698806 -0.0950486 0
0.00667068 -0.0813834 0
0.0266185 -0.161992 0
0.00698806 -0.0950417 0
0.027885 -0.189178 0
0.0250957 -0.136192 0
0.0562388 -0.202653 0
0.0266186 -0.161986 0
0.0596515 -0.241034 0
0.0562388 -0.202648 0
0.0994184 -0.267157 0
0.0596515 -0.241029 0
0.105451 -0.317756 0
0.0266185 -0.161986 0
0.0596512 -0.241034 0
0.027885 -0.189172 0
0.0624894 -0.281486 0
0.0596512 -0.241029 0
0.105451 -0.317756 0
0.0624894 -0.28148 0
0.110468 -0.371083 0
0.0845483 -0.176062 0
0.131152 -0.21688 0
0.0924289 -0.219771 0
0.143377 -0.270722 0
0.131152 -0.216877 0
0.18719 -0.255606 0
0.143377 -0.270718 0
0.204637 -0.319062 0
0.0924284 -0.219771 0
0.143376 -0.270722 0
0.0994189 -0.267152 0
0.154219 -0.329088 0
0.143376 -0.270718 0
0.204636 -0.319062 0
0.154219 -0.329084 0
0.220113 -0.38785 0
0.18719 -0.255603 0
0.252121 -0.29187 0
0.204637 -0.319059 0
0.275621 -0.36433 0
0.252121 -0.291868 0
0.325321 -0.325324 0
0.275621 -0.364326 0
0.355644 -0.406088 0
0.204636 -0.319059 0
0.275619 -0.36433 0
0.220113 -0.387846 0
0.296465 -0.442877 0
0.275619 -0.364326 0
0.355642 -0.406088 0
0.296465 -0.442874 0
0.38254 -0.493639 0
0.0994184 -0.267152 0
0.154219 -0.329088 0
0.105451 -0.31775 0
0.163577 -0.391417 0
0.154219 -0.329084 0
0.220112 -0.38785 0
0.163577 -0.391411 0
0.233469 -0.461308 0
0.105451 -0.31775 0
0.163576 -0.391417 0
0.110468 -0.371077 0
0.171359 -0.457106 0
0.163576 -0.391411 0
0.233468 -0.461308 0
0.171359 -0.4571 0
0.244576 -0.538727 0
0.220112 -0.387846 0
0.296463 -0.442877 0
0.233469 -0.461303 0
0.314453 -0.526757 0
0.296463 -0.442874 0
0.382538 -0.493639 0
0.314453 -0.526752 0
0.405751 -0.587133 0
0.233468 -0.461303 0
0.314452 -0.526757 0
0.244576 -0.538722 0
0.329414 -0.61516 0
0.314452 -0.526752 0
0.40575 -0.587133 0
0.329414 -0.615155 0
0.425055 -0.685669 0
0 3.47359e-06 0
0.00698804 -0.0950486 0
0 3.99356e-06 0
0.00723813 -0.109275 0
0.00698804 -0.0950417 0
0.0278849 -0.189178 0
0.00723813 -0.109267 0
0.0288828 -0.217494 0
0 3.99356e-06 0
0.00723811 -0.109275 0
0 4.52926e-06 0
0.00741848 -0.123932 0
0.00723811 -0.109267 0
0.0288827 -0.217494 0
0.00741848 -0.123923 0
0.0296025 -0.246667 0
0.0278849 -0.189172 0
0.0624892 -0.281486 0
0.0288828 -0.217486 0
0.0647256 -0.323619 0
0.0624892 -0.28148 0
0.110468 -0.371083 0
0.0647256 -0.323611 0
0.114421 -0.426626 0
0.0288827 -0.217486 0
0.0647254 -0.323619 0
0.0296025 -0.246658 0
0.0663384 -0.367026 0
0.0647254 -0.323611 0
0.114421 -0.426626 0
0.0663384 -0.367017 0
0.117272 -0.48385 0
0 4.52926e-06 0
0.00741847 -0.123932 0
0 5.07554e-06 0
0.00752739 -0.138879 0
0.00741847 -0.123923 0
0.0296024 -0.246667 0
0.00752739 -0.138869 0
0.0300371 -0.276415 0
0 5.07554e-06 0
0.00752739 -0.138879 0
0 5.62713e-06 0
0.00756381 -0.153971 0
0.00752739 -0.138869 0
0.0300371 -0.276415 0
0.00756381 -0.153959 0
0.0301824 -0.306453 0
0.0296024 -0.246658 0
0.0663383 -0.367026 0
0.0300371 -0.276405 0
0.0673123 -0.411289 0
0.0663383 -0.367017 0
0.117272 -0.48385 0
0.0673123 -0.41128 0
0.118994 -0.542203 0
0.0300371 -0.276405 0
0.0673122 -0.411289 0
0.0301824 -0.306442 0
0.067638 -0.455984 0
0.0673122 -0.41128 0
0.118994 -0.542203 0
0.067638 -0.455973 0
0.11957 -0.601123 0
0.110468 -0.371077 0
0.171359 -0.457106 0
0.114421 -0.426619 0
0.177491 -0.525525 0
0.171359 -0.4571 0
0.244575 -0.538727 0
0.177491 -0.525518 0
0.253328 -0.619363 0
0.114421 -0.426619 0
0.177491 -0.525525 0
0.117272 -0.483841 0
0.181914 -0.596014 0
0.177491 -0.525518 0
0.253328 -0.619363 0
0.181914 -0.596006 0
0.25964 -0.702439 0
0.244575 -0.538722 0
0.329413 -0.61516 0
0.253328 -0.619357 0
0.341202 -0.707236 0
0.329413 -0.615155 0
0.425054 -0.685669 0
0.341202 -0.70723 0
0.440265 -0.788298 0
0.253328 -0.619357 0
0.341201 -0.707236 0
0.25964 -0.702431 0
0.349704 -0.802098 0
0.341201 -0.70723 0
0.440264 -0.788298 0
0.349704 -0.802091 0
0.451236 -0.894033 0
0.117272 -0.483841 0
0.181914 -0.596014 0
0.118994 -0.542193 0
0.184585 -0.667894 0
0.181914 -0.596006 0
0.25964 -0.702439 0
0.184585 -0.667885 0
0.263452 -0.787154 0
0.118994 -0.542193 0
0.184584 -0.667894 0
0.11957 -0.601113 0
0.185478 -0.740473 0
0.184584 -0.667885 0
0.263452 -0.787154 0
0.185478 -0.740463 0
0.264727 -0.872692 0
0.25964 -0.702431 0
0.349703 -0.802098 0
0.263452 -0.787145 0
0.354838 -0.898832 0
0.349703 -0.802091 0
0.451235 -0.894033 0
0.354838 -0.898824 0
0.45786 -1.00185 0
0.263452 -0.787145 0
0.354837 -0.898832 0
0.264727 -0.872683 0
0.356554 -0.996507 0
0.354837 -0.898824 0
0.45786 -1.00185 0
0.356554 -0.996498 0
0.460076 -1.11072 0
0.325321 -0.325321 0
0.406086 -0.355644 0
0.355644 -0.406086 0
0.443936 -0.443936 0
0.406086 -0.355642 0
0.493636 -0.38254 0
0.443936 -0.443934 0
0.539647 -0.477509 0
0.355642 -0.406086 0
0.443934 -0.443936 0
0.38254 -0.493636 0
0.477509 -0.539647 0
0.443934 -0.443934 0
0.539644 -0.477509 0
0.477509 -0.539644 0
0.580458 -0.580458 0
0.493636 -0.382538 0
0.587129 -0.405751 0
0.539647 -0.477507 0
0.641854 -0.506483 0
0.587129 -0.40575 0
0.685664 -0.425055 0
0.641854 -0.506481 0
0.749574 -0.530579 0
0.539644 -0.477507 0
0.64185 -0.506483 0
0.580458 -0.580455 0
0.690394 -0.615678 0
0.64185 -0.506481 0
0.74957 -0.530579 0
0.690394 -0.615676 0
0.80626 -0.644969 0
0.382538 -0.493636 0
0.477507 -0.539647 0
0.405751 -0.587129 0
0.506483 -0.641854 0
0.477507 -0.539644 0
0.580455 -0.580458 0
0.506483 -0.64185 0
0.615678 -0.690394 0
0.40575 -0.587129 0
0.506481 -0.641854 0
0.425055 -0.685664 0
0.530579 -0.749574 0
0.506481 -0.64185 0
0.615676 -0.690394 0
0.530579 -0.74957 0
0.644969 -0.80626 0
0.580455 -0.580455 0
0.690391 -0.615678 0
0.615678 -0.690391 0
0.732285 -0.732285 0
0.690391 -0.615676 0
0.806256 -0.644969 0
0.732285 -0.732283 0
0.855182 -0.767124 0
0.615676 -0.690391 0
0.732283 -0.732285 0
0.644969 -0.806256 0
0.767124 -0.855182 0
0.732283 -0.732283 0
0.855179 -0.767124 0
0.767124 -0.855179 0
0.895868 -0.895868 0
0.685664 -0.425054 0
0.788293 -0.440265 0
0.749574 -0.530577 0
0.861769 -0.549565 0
0.788293 -0.440264 0
0.894027 -0.451236 0
0.861769 -0.549564 0
0.977358 -0.563259 0
0.74957 -0.530577 0
0.861764 -0.549565 0
0.80626 -0.644967 0
0.92694 -0.668049 0
0.861764 -0.549564 0
0.977352 -0.563259 0
0.92694 -0.668048 0
1.05127 -0.684695 0
0.894027 -0.451235 0
1.00185 -0.45786 0
0.977358 -0.563258 0
1.09523 -0.571529 0
1.00185 -0.45786 0
1.11072 -0.460076 0
1.09523 -0.571528 0
1.21425 -0.574294 0
0.977352 -0.563258 0
1.09522 -0.571529 0
1.05127 -0.684694 0
1.17806 -0.694747 0
1.09522 -0.571528 0
1.21424 -0.574294 0
1.17806 -0.694747 0
1.30607 -0.698109 0
0.806256 -0.644967 0
0.926935 -0.668049 0
0.855182 -0.767122 0
0.983184 -0.794575 0
0.926935 -0.668048 0
1.05127 -0.684695 0
0.983184 -0.794574 0
1.11506 -0.814374 0
0.855179 -0.767122 0
0.98318 -0.794575 0
0.895868 -0.895865 0
1.02996 -0.927926 0
0.98318 -0.794574 0
1.11505 -0.814374 0
1.02996 -0.927924 0
1.16811 -0.951047 0
1.05127 -0.684694 0
1.17805 -0.694747 0
1.11506 -0.814373 0
1.24954 -0.82633 0
1.17805 -0.694747 0
1.30607 -0.698109 0
1.24954 -0.82633 0
1.38532 -0.830328 0
1.11505 -0.814373 0
1.24953 -0.82633 0
1.16811 -0.951046 0
1.30898 -0.96501 0
1.24953 -0.82633 0
1.38532 -0.830328 0
1.30898 -0.965009 0
1.45123 -0.969679 0
0.425054 -0.685664 0
0.530577 -0.749574 0
0.440265 -0.788293 0
0.549565 -0.861769 0
0.530577 -0.74957 0
0.644967 -0.80626 0
0.549565 -0.861764 0
0.668049 -0.92694 0
0.440264 -0.788293 0
0.549564 -0.861769 0
0.451236 -0.894027 0
0.563259 -0.977358 0
0.549564 -0.861764 0
0.668048 -0.92694 0
0.563259 -0.977352 0
0.684695 -1.05127 0
0.644967 -0.806256 0
0.767122 -0.855182 0
0.668049 -0.926935 0
0.794575 -0.983184 0
0.767122 -0.855179 0
0.895865 -0.895868 0
0.794575 -0.98318 0
0.927926 -1.02996 0
0.668048 -0.926935 0
0.794574 -0.983184 0
0.684695 -1.05127 0
0.814374 -1.11506 0
0.794574 -0.98318 0
0.927924 -1.02996 0
0.814374 -1.11505 0
0.951047 -1.16811 0
0.451235 -0.894027 0
0.563258 -0.977358 0
0.45786 -1.00185 0
0.571529 -1.09523 0
0.563258 -0.977352 0
0.684694 -1.05127 0
0.571529 -1.09522 0
0.694747 -1.17806 0
0.45786 -1.00185 0
0.571528 -1.09523 0
0.460076 -1.11072 0
0.574294 -1.21425 0