# vtk DataFile Version 3.0
#This file was generated by the deal.II library on 2017/9/21 at 12:01:08
ASCII
DATASET UNSTRUCTURED_GRID

POINTS 16 double
0 0 0
0.5 0 0
0 0.5 0
0.5 0.5 0
0.5 0 0
1 0 0
0.5 0.5 0
1 0.5 0
0 0.5 0
0.5 0.5 0
0 1 0
0.5 1 0
0.5 0.5 0
1 0.5 0
0.5 1 0
1 1 0

CELLS 4 20
4	0	1	3	2
4	4	5	7	6
4	8	9	11	10
4	12	13	15	14

CELL_TYPES 4
 9 9 9 9
POINT_DATA 16
VECTORS velocity double
0 0 0
0.00141354 0 0
0 -0.00141354 0
0.0014178 -0.0014178 0
0.00141354 0 0
0 0 0
0.0014178 0.0014178 0
0 0.00141354 0
0 -0.00141354 0
-0.0014178 -0.0014178 0
0 0 0
-0.00141354 0 0
-0.0014178 0.0014178 0
0 0.00141354 0
-0.00141354 0 0
0 0 0
SCALARS pressure double 1
LOOKUP_TABLE default
1.46271e-05 -0.00280479 1.00284 1.45535e-05 0.00280479 -1.46274e-05 -1.45532e-05 -1.00284 0.997228 1.45535e-05 1.46263e-05 0.00280496 -1.45531e-05 -0.997228 -0.00280496 -1.46257e-05 
SCALARS global_div_diff double 1
LOOKUP_TABLE default
1.13318e-09 1.13318e-09 1.13318e-09 1.13318e-09 1.13037e-09 1.13037e-09 1.13037e-09 1.13037e-09 1.12914e-09 1.12914e-09 1.12914e-09 1.12914e-09 1.13313e-09 1.13313e-09 1.13313e-09 1.13313e-09 
SCALARS cell_div_diff double 1
LOOKUP_TABLE default
1.13318e-09 1.13318e-09 1.13318e-09 1.13318e-09 1.13037e-09 1.13037e-09 1.13037e-09 1.13037e-09 1.12914e-09 1.12914e-09 1.12914e-09 1.12914e-09 1.13313e-09 1.13313e-09 1.13313e-09 1.13313e-09 
SCALARS global_l2_diff double 1
LOOKUP_TABLE default
0.000637561 0.000637561 0.000637561 0.000637561 0.000637561 0.000637561 0.000637561 0.000637561 0.000637561 0.000637561 0.000637561 0.000637561 0.000637561 0.000637561 0.000637561 0.000637561 
SCALARS global_h1_diff double 1
LOOKUP_TABLE default
0.025237 0.025237 0.025237 0.025237 0.025237 0.025237 0.025237 0.025237 0.025237 0.025237 0.025237 0.025237 0.025237 0.025237 0.025237 0.025237 
