# vtk DataFile Version 3.0
#This file was generated by the deal.II library on 2017/9/21 at 12:01:40
ASCII
DATASET UNSTRUCTURED_GRID

POINTS 256 double
0 0 0
0.125 0 0
0 0.125 0
0.125 0.125 0
0.125 0 0
0.25 0 0
0.125 0.125 0
0.25 0.125 0
0 0.125 0
0.125 0.125 0
0 0.25 0
0.125 0.25 0
0.125 0.125 0
0.25 0.125 0
0.125 0.25 0
0.25 0.25 0
0.25 0 0
0.375 0 0
0.25 0.125 0
0.375 0.125 0
0.375 0 0
0.5 0 0
0.375 0.125 0
0.5 0.125 0
0.25 0.125 0
0.375 0.125 0
0.25 0.25 0
0.375 0.25 0
0.375 0.125 0
0.5 0.125 0
0.375 0.25 0
0.5 0.25 0
0 0.25 0
0.125 0.25 0
0 0.375 0
0.125 0.375 0
0.125 0.25 0
0.25 0.25 0
0.125 0.375 0
0.25 0.375 0
0 0.375 0
0.125 0.375 0
0 0.5 0
0.125 0.5 0
0.125 0.375 0
0.25 0.375 0
0.125 0.5 0
0.25 0.5 0
0.25 0.25 0
0.375 0.25 0
0.25 0.375 0
0.375 0.375 0
0.375 0.25 0
0.5 0.25 0
0.375 0.375 0
0.5 0.375 0
0.25 0.375 0
0.375 0.375 0
0.25 0.5 0
0.375 0.5 0
0.375 0.375 0
0.5 0.375 0
0.375 0.5 0
0.5 0.5 0
0.5 0 0
0.625 0 0
0.5 0.125 0
0.625 0.125 0
0.625 0 0
0.75 0 0
0.625 0.125 0
0.75 0.125 0
0.5 0.125 0
0.625 0.125 0
0.5 0.25 0
0.625 0.25 0
0.625 0.125 0
0.75 0.125 0
0.625 0.25 0
0.75 0.25 0
0.75 0 0
0.875 0 0
0.75 0.125 0
0.875 0.125 0
0.875 0 0
1 0 0
0.875 0.125 0
1 0.125 0
0.75 0.125 0
0.875 0.125 0
0.75 0.25 0
0.875 0.25 0
0.875 0.125 0
1 0.125 0
0.875 0.25 0
1 0.25 0
0.5 0.25 0
0.625 0.25 0
0.5 0.375 0
0.625 0.375 0
0.625 0.25 0
0.75 0.25 0
0.625 0.375 0
0.75 0.375 0
0.5 0.375 0
0.625 0.375 0
0.5 0.5 0
0.625 0.5 0
0.625 0.375 0
0.75 0.375 0
0.625 0.5 0
0.75 0.5 0
0.75 0.25 0
0.875 0.25 0
0.75 0.375 0
0.875 0.375 0
0.875 0.25 0
1 0.25 0
0.875 0.375 0
1 0.375 0
0.75 0.375 0
0.875 0.375 0
0.75 0.5 0
0.875 0.5 0
0.875 0.375 0
1 0.375 0
0.875 0.5 0
1 0.5 0
0 0.5 0
0.125 0.5 0
0 0.625 0
0.125 0.625 0
0.125 0.5 0
0.25 0.5 0
0.125 0.625 0
0.25 0.625 0
0 0.625 0
0.125 0.625 0
0 0.75 0
0.125 0.75 0
0.125 0.625 0
0.25 0.625 0
0.125 0.75 0
0.25 0.75 0
0.25 0.5 0
0.375 0.5 0
0.25 0.625 0
0.375 0.625 0
0.375 0.5 0
0.5 0.5 0
0.375 0.625 0
0.5 0.625 0
0.25 0.625 0
0.375 0.625 0
0.25 0.75 0
0.375 0.75 0
0.375 0.625 0
0.5 0.625 0
0.375 0.75 0
0.5 0.75 0
0 0.75 0
0.125 0.75 0
0 0.875 0
0.125 0.875 0
0.125 0.75 0
0.25 0.75 0
0.125 0.875 0
0.25 0.875 0
0 0.875 0
0.125 0.875 0
0 1 0
0.125 1 0
0.125 0.875 0
0.25 0.875 0
0.125 1 0
0.25 1 0
0.25 0.75 0
0.375 0.75 0
0.25 0.875 0
0.375 0.875 0
0.375 0.75 0
0.5 0.75 0
0.375 0.875 0
0.5 0.875 0
0.25 0.875 0
0.375 0.875 0
0.25 1 0
0.375 1 0
0.375 0.875 0
0.5 0.875 0
0.375 1 0
0.5 1 0
0.5 0.5 0
0.625 0.5 0
0.5 0.625 0
0.625 0.625 0
0.625 0.5 0
0.75 0.5 0
0.625 0.625 0
0.75 0.625 0
0.5 0.625 0
0.625 0.625 0
0.5 0.75 0
0.625 0.75 0
0.625 0.625 0
0.75 0.625 0
0.625 0.75 0
0.75 0.75 0
0.75 0.5 0
0.875 0.5 0
0.75 0.625 0
0.875 0.625 0
0.875 0.5 0
1 0.5 0
0.875 0.625 0
1 0.625 0
0.75 0.625 0
0.875 0.625 0
0.75 0.75 0
0.875 0.75 0
0.875 0.625 0
1 0.625 0
0.875 0.75 0
1 0.75 0
0.5 0.75 0
0.625 0.75 0
0.5 0.875 0
0.625 0.875 0
0.625 0.75 0
0.75 0.75 0
0.625 0.875 0
0.75 0.875 0
0.5 0.875 0
0.625 0.875 0
0.5 1 0
0.625 1 0
0.625 0.875 0
0.75 0.875 0
0.625 1 0
0.75 1 0
0.75 0.75 0
0.875 0.75 0
0.75 0.875 0
0.875 0.875 0
0.875 0.75 0
1 0.75 0
0.875 0.875 0
1 0.875 0
0.75 0.875 0
0.875 0.875 0
0.75 1 0
0.875 1 0
0.875 0.875 0
1 0.875 0
0.875 1 0
1 1 0

CELLS 64 320
4	0	1	3	2
4	4	5	7	6
4	8	9	11	10
4	12	13	15	14
4	16	17	19	18
4	20	21	23	22
4	24	25	27	26
4	28	29	31	30
4	32	33	35	34
4	36	37	39	38
4	40	41	43	42
4	44	45	47	46
4	48	49	51	50
4	52	53	55	54
4	56	57	59	58
4	60	61	63	62
4	64	65	67	66
4	68	69	71	70
4	72	73	75	74
4	76	77	79	78
4	80	81	83	82
4	84	85	87	86
4	88	89	91	90
4	92	93	95	94
4	96	97	99	98
4	100	101	103	102
4	104	105	107	106
4	108	109	111	110
4	112	113	115	114
4	116	117	119	118
4	120	121	123	122
4	124	125	127	126
4	128	129	131	130
4	132	133	135	134
4	136	137	139	138
4	140	141	143	142
4	144	145	147	146
4	148	149	151	150
4	152	153	155	154
4	156	157	159	158
4	160	161	163	162
4	164	165	167	166
4	168	169	171	170
4	172	173	175	174
4	176	177	179	178
4	180	181	183	182
4	184	185	187	186
4	188	189	191	190
4	192	193	195	194
4	196	197	199	198
4	200	201	203	202
4	204	205	207	206
4	208	209	211	210
4	212	213	215	214
4	216	217	219	218
4	220	221	223	222
4	224	225	227	226
4	228	229	231	230
4	232	233	235	234
4	236	237	239	238
4	240	241	243	242
4	244	245	247	246
4	248	249	251	250
4	252	253	255	254

CELL_TYPES 64
 9 9 9 9 9 9 9 9 9 9 9 9 9 9 9 9 9 9 9 9 9 9 9 9 9 9 9 9 9 9 9 9 9 9 9 9 9 9 9 9 9 9 9 9 9 9 9 9 9 9 9 9 9 9 9 9 9 9 9 9 9 9 9 9
POINT_DATA 256
VECTORS velocity double
0 0 0
2.21979e-08 0 0
0 -2.23189e-08 0
0.325323 -0.325323 0
2.21979e-08 0 0
7.63742e-08 0 0
0.325323 -0.325323 0
1.11072 -0.460076 0
0 -2.23189e-08 0
0.325323 -0.325323 0
0 -7.62768e-08 0
0.460076 -1.11072 0
0.325323 -0.325323 0
1.11072 -0.460076 0
0.460076 -1.11072 0
1.5708 -1.5708 0
7.63742e-08 0 0
1.30371e-07 0 0
1.11072 -0.460076 0
1.89612 -0.325323 0
1.30371e-07 0 0
1.52801e-07 0 0
1.89612 -0.325323 0
2.22144 -2.224e-08 0
1.11072 -0.460076 0
1.89612 -0.325323 0
1.5708 -1.5708 0
2.68152 -1.11072 0
1.89612 -0.325323 0
2.22144 -2.224e-08 0
2.68152 -1.11072 0
3.14159 -7.63262e-08 0
0 -7.62768e-08 0
0.460076 -1.11072 0
0 -1.30418e-07 0
0.325323 -1.89612 0
0.460076 -1.11072 0
1.5708 -1.5708 0
0.325323 -1.89612 0
1.11072 -2.68152 0
0 -1.30418e-07 0
0.325323 -1.89612 0
0 -1.52791e-07 0
2.22299e-08 -2.22144 0
0.325323 -1.89612 0
1.11072 -2.68152 0
2.22299e-08 -2.22144 0
7.63145e-08 -3.14159 0
1.5708 -1.5708 0
2.68152 -1.11072 0
1.11072 -2.68152 0
1.89612 -1.89612 0
2.68152 -1.11072 0
3.14159 -7.63262e-08 0
1.89612 -1.89612 0
2.22144 -1.30413e-07 0
1.11072 -2.68152 0
1.89612 -1.89612 0
7.63145e-08 -3.14159 0
1.30399e-07 -2.22144 0
1.89612 -1.89612 0
2.22144 -1.30413e-07 0
1.30399e-07 -2.22144 0
1.52802e-07 -1.52817e-07 0
1.52801e-07 0 0
1.30371e-07 0 0
2.22144 2.22398e-08 0
1.89612 0.325323 0
1.30371e-07 0 0
7.63742e-08 0 0
1.89612 0.325323 0
1.11072 0.460076 0
2.22144 2.22398e-08 0
1.89612 0.325323 0
3.14159 7.63248e-08 0
2.68152 1.11072 0
1.89612 0.325323 0
1.11072 0.460076 0
2.68152 1.11072 0
1.5708 1.5708 0
7.63742e-08 0 0
2.21978e-08 0 0
1.11072 0.460076 0
0.325323 0.325323 0
2.21978e-08 0 0
0 0 0
0.325323 0.325323 0
0 2.23189e-08 0
1.11072 0.460076 0
0.325323 0.325323 0
1.5708 1.5708 0
0.460076 1.11072 0
0.325323 0.325323 0
0 2.23189e-08 0
0.460076 1.11072 0
0 7.62768e-08 0
3.14159 7.63248e-08 0
2.68152 1.11072 0
2.22144 1.30411e-07 0
1.89612 1.89612 0
2.68152 1.11072 0
1.5708 1.5708 0
1.89612 1.89612 0
1.11072 2.68152 0
2.22144 1.30411e-07 0
1.89612 1.89612 0
1.52802e-07 1.52814e-07 0
1.30399e-07 2.22144 0
1.89612 1.89612 0
1.11072 2.68152 0
1.30399e-07 2.22144 0
7.6314e-08 3.14159 0
1.5708 1.5708 0
0.460076 1.11072 0
1.11072 2.68152 0
0.325323 1.89612 0
0.460076 1.11072 0
0 7.62768e-08 0
0.325323 1.89612 0
0 1.30418e-07 0
1.11072 2.68152 0
0.325323 1.89612 0
7.6314e-08 3.14159 0
2.22295e-08 2.22144 0
0.325323 1.89612 0
0 1.30418e-07 0
2.22295e-08 2.22144 0
0 1.52791e-07 0
0 -1.52791e-07 0
-2.22503e-08 -2.22144 0
0 -1.30372e-07 0
-0.325323 -1.89612 0
-2.22503e-08 -2.22144 0
-7.63365e-08 -3.14159 0
-0.325323 -1.89612 0
-1.11072 -2.68152 0
0 -1.30372e-07 0
-0.325323 -1.89612 0
0 -7.63741e-08 0
-0.460076 -1.11072 0
-0.325323 -1.89612 0
-1.11072 -2.68152 0
-0.460076 -1.11072 0
-1.5708 -1.5708 0
-7.63365e-08 -3.14159 0
-1.30425e-07 -2.22144 0
-1.11072 -2.68152 0
-1.89612 -1.89612 0
-1.30425e-07 -2.22144 0
-1.5283e-07 -1.52817e-07 0
-1.89612 -1.89612 0
-2.22144 -1.30413e-07 0
-1.11072 -2.68152 0
-1.89612 -1.89612 0
-1.5708 -1.5708 0
-2.68152 -1.11072 0
-1.89612 -1.89612 0
-2.22144 -1.30413e-07 0
-2.68152 -1.11072 0
-3.14159 -7.63263e-08 0
0 -7.63741e-08 0
-0.460076 -1.11072 0
0 -2.21974e-08 0
-0.325323 -0.325323 0
-0.460076 -1.11072 0
-1.5708 -1.5708 0
-0.325323 -0.325323 0
-1.11072 -0.460076 0
0 -2.21974e-08 0
-0.325323 -0.325323 0
0 0 0
-2.23184e-08 0 0
-0.325323 -0.325323 0
-1.11072 -0.460076 0
-2.23184e-08 0 0
-7.62767e-08 0 0
-1.5708 -1.5708 0
-2.68152 -1.11072 0
-1.11072 -0.460076 0
-1.89612 -0.325323 0
-2.68152 -1.11072 0
-3.14159 -7.63263e-08 0
-1.89612 -0.325323 0
-2.22144 -2.22405e-08 0
-1.11072 -0.460076 0
-1.89612 -0.325323 0
-7.62767e-08 0 0
-1.30419e-07 0 0
-1.89612 -0.325323 0
-2.22144 -2.22405e-08 0
-1.30419e-07 0 0
-1.52781e-07 0 0
-1.5283e-07 1.52814e-07 0
-1.30425e-07 2.22144 0
-2.22144 1.30411e-07 0
-1.89612 1.89612 0
-1.30425e-07 2.22144 0
-7.6337e-08 3.14159 0
-1.89612 1.89612 0
-1.11072 2.68152 0
-2.22144 1.30411e-07 0
-1.89612 1.89612 0
-3.14159 7.63246e-08 0
-2.68152 1.11072 0
-1.89612 1.89612 0
-1.11072 2.68152 0
-2.68152 1.11072 0
-1.5708 1.5708 0
-7.6337e-08 3.14159 0
-2.22507e-08 2.22144 0
-1.11072 2.68152 0
-0.325323 1.89612 0
-2.22507e-08 2.22144 0
0 1.52791e-07 0
-0.325323 1.89612 0
0 1.30372e-07 0
-1.11072 2.68152 0
-0.325323 1.89612 0
-1.5708 1.5708 0
-0.460076 1.11072 0
-0.325323 1.89612 0
0 1.30372e-07 0
-0.460076 1.11072 0
0 7.63741e-08 0
-3.14159 7.63246e-08 0
-2.68152 1.11072 0
-2.22144 2.22401e-08 0
-1.89612 0.325323 0
-2.68152 1.11072 0
-1.5708 1.5708 0
-1.89612 0.325323 0
-1.11072 0.460076 0
-2.22144 2.22401e-08 0
-1.89612 0.325323 0
-1.52781e-07 0 0
-1.30419e-07 0 0
-1.89612 0.325323 0
-1.11072 0.460076 0
-1.30419e-07 0 0
-7.62767e-08 0 0
-1.5708 1.5708 0
-0.460076 1.11072 0
-1.11072 0.460076 0
-0.325323 0.325323 0
-0.460076 1.11072 0
0 7.63741e-08 0
-0.325323 0.325323 0
0 2.21975e-08 0
-1.11072 0.460076 0
-0.325323 0.325323 0
-7.62767e-08 0 0
-2.23184e-08 0 0
-0.325323 0.325323 0
0 2.21975e-08 0
-2.23184e-08 0 0
0 0 0
SCALARS pressure double 1
LOOKUP_TABLE default
-1.47971e-06 4.23581e-07 0.382683 0.353553 4.06945e-07 2.84171e-07 0.353553 0.270598 0.382684 0.353554 0.707106 0.653282 0.353553 0.270599 0.653281 0.5 2.18401e-07 1.29723e-07 0.270598 0.146446 2.66454e-07 -5.77028e-08 0.146447 -5.28029e-07 0.270599 0.146447 0.5 0.270598 0.146447 -5.30853e-07 0.270599 -7.4921e-07 0.707106 0.653282 0.923879 0.853554 0.653281 0.5 0.853553 0.653282 0.923879 0.853553 1 0.92388 0.853553 0.653281 0.92388 0.707108 0.5 0.270598 0.653282 0.353553 0.270599 -7.4925e-07 0.353554 -5.29406e-07 0.653281 0.353553 0.707108 0.382684 0.353553 -5.29413e-07 0.382684 9.94189e-10 5.77109e-08 -2.66445e-07 5.2802e-07 -0.146447 -1.29717e-07 -2.18389e-07 -0.146446 -0.270598 5.30861e-07 -0.146447 7.49188e-07 -0.270599 -0.146447 -0.270599 -0.270598 -0.5 -2.84168e-07 -4.07012e-07 -0.270598 -0.353553 -4.23635e-07 1.47931e-06 -0.353553 -0.382683 -0.270599 -0.353553 -0.5 -0.653281 -0.353554 -0.382684 -0.653282 -0.707106 7.49236e-07 -0.270599 5.29382e-07 -0.353554 -0.270598 -0.5 -0.353553 -0.653282 5.29376e-07 -0.353553 -9.9043e-10 -0.382684 -0.353553 -0.653281 -0.382684 -0.707108 -0.5 -0.653281 -0.653282 -0.853553 -0.653282 -0.707106 -0.853554 -0.923879 -0.653281 -0.853553 -0.707108 -0.92388 -0.853553 -0.923879 -0.92388 -1 1 0.923879 0.92388 0.853553 0.923879 0.707106 0.853554 0.653282 0.92388 0.853553 0.707107 0.653281 0.853553 0.653281 0.653282 0.5 0.707106 0.382683 0.653282 0.353554 0.382683 9.9537e-10 0.353553 5.31234e-07 0.653281 0.353553 0.5 0.270599 0.353553 5.31233e-07 0.270598 7.50715e-07 0.707107 0.653281 0.382684 0.353553 0.653282 0.5 0.353553 0.270598 0.382684 0.353553 -1.47892e-06 -7.55546e-08 0.353554 0.270599 9.25723e-08 -2.98144e-07 0.5 0.270599 0.270598 0.146447 0.270598 7.50643e-07 0.146446 5.30531e-07 0.270599 0.146447 -3.64411e-07 -1.85767e-07 0.146447 5.27646e-07 -2.42503e-07 7.90907e-08 -1.00049e-09 -0.382683 -5.31218e-07 -0.353553 -0.382683 -0.707106 -0.353554 -0.653282 -5.31225e-07 -0.353553 -7.50701e-07 -0.270598 -0.353553 -0.653281 -0.270599 -0.5 -0.707106 -0.923879 -0.653282 -0.853554 -0.923879 -1 -0.853553 -0.92388 -0.653281 -0.853553 -0.5 -0.653282 -0.853553 -0.92388 -0.653281 -0.707107 -7.50622e-07 -0.270598 -5.30542e-07 -0.146446 -0.270599 -0.5 -0.146447 -0.270598 -5.27653e-07 -0.146447 -7.90908e-08 2.42503e-07 -0.146447 -0.270599 1.85767e-07 3.64413e-07 -0.5 -0.653282 -0.270598 -0.353553 -0.653281 -0.707107 -0.353553 -0.382684 -0.270599 -0.353554 2.98152e-07 -9.25119e-08 -0.353553 -0.382684 7.56067e-08 1.47905e-06 
SCALARS global_div_diff double 1
LOOKUP_TABLE default
9.25063e-10 9.25063e-10 9.25063e-10 9.25063e-10 2.95628e-10 2.95628e-10 2.95628e-10 2.95628e-10 2.98065e-10 2.98065e-10 2.98065e-10 2.98065e-10 1.37816e-11 1.37816e-11 1.37816e-11 1.37816e-11 9.66944e-11 9.66944e-11 9.66944e-11 9.66944e-11 2.01715e-11 2.01715e-11 2.01715e-11 2.01715e-11 4.28838e-12 4.28838e-12 4.28838e-12 4.28838e-12 2.11773e-12 2.11773e-12 2.11773e-12 2.11773e-12 9.70718e-11 9.70718e-11 9.70718e-11 9.70718e-11 5.63542e-12 5.63542e-12 5.63542e-12 5.63542e-12 2.64892e-11 2.64892e-11 2.64892e-11 2.64892e-11 1.04142e-11 1.04142e-11 1.04142e-11 1.04142e-11 3.86352e-12 3.86352e-12 3.86352e-12 3.86352e-12 2.06147e-12 2.06147e-12 2.06147e-12 2.06147e-12 7.02074e-12 7.02074e-12 7.02074e-12 7.02074e-12 2.94475e-12 2.94475e-12 2.94475e-12 2.94475e-12 2.01617e-11 2.01617e-11 2.01617e-11 2.01617e-11 9.67171e-11 9.67171e-11 9.67171e-11 9.67171e-11 1.74891e-12 1.74891e-12 1.74891e-12 1.74891e-12 4.25348e-12 4.25348e-12 4.25348e-12 4.25348e-12 2.95668e-10 2.95668e-10 2.95668e-10 2.95668e-10 9.25109e-10 9.25109e-10 9.25109e-10 9.25109e-10 1.3803e-11 1.3803e-11 1.3803e-11 1.3803e-11 2.98101e-10 2.98101e-10 2.98101e-10 2.98101e-10 1.40629e-12 1.40629e-12 1.40629e-12 1.40629e-12 3.46672e-12 3.46672e-12 3.46672e-12 3.46672e-12 2.45443e-12 2.45443e-12 2.45443e-12 2.45443e-12 6.47381e-12 6.47381e-12 6.47381e-12 6.47381e-12 5.71643e-12 5.71643e-12 5.71643e-12 5.71643e-12 9.70487e-11 9.70487e-11 9.70487e-11 9.70487e-11 1.03726e-11 1.03726e-11 1.03726e-11 1.03726e-11 2.67801e-11 2.67801e-11 2.67801e-11 2.67801e-11 2.6469e-11 2.6469e-11 2.6469e-11 2.6469e-11 1.0313e-11 1.0313e-11 1.0313e-11 1.0313e-11 9.70919e-11 9.70919e-11 9.70919e-11 9.70919e-11 5.6684e-12 5.6684e-12 5.6684e-12 5.6684e-12 6.86338e-12 6.86338e-12 6.86338e-12 6.86338e-12 2.66409e-12 2.66409e-12 2.66409e-12 2.66409e-12 3.49999e-12 3.49999e-12 3.49999e-12 3.49999e-12 1.52089e-12 1.52089e-12 1.52089e-12 1.52089e-12 2.98095e-10 2.98095e-10 2.98095e-10 2.98095e-10 1.37575e-11 1.37575e-11 1.37575e-11 1.37575e-11 9.24745e-10 9.24745e-10 9.24745e-10 9.24745e-10 2.95625e-10 2.95625e-10 2.95625e-10 2.95625e-10 4.30421e-12 4.30421e-12 4.30421e-12 4.30421e-12 1.71163e-12 1.71163e-12 1.71163e-12 1.71163e-12 9.67086e-11 9.67086e-11 9.67086e-11 9.67086e-11 2.01668e-11 2.01668e-11 2.01668e-11 2.01668e-11 2.60039e-12 2.60039e-12 2.60039e-12 2.60039e-12 6.56905e-12 6.56905e-12 6.56905e-12 6.56905e-12 1.97912e-12 1.97912e-12 1.97912e-12 1.97912e-12 3.68614e-12 3.68614e-12 3.68614e-12 3.68614e-12 1.02709e-11 1.02709e-11 1.02709e-11 1.02709e-11 2.67751e-11 2.67751e-11 2.67751e-11 2.67751e-11 5.55586e-12 5.55586e-12 5.55586e-12 5.55586e-12 9.70325e-11 9.70325e-11 9.70325e-11 9.70325e-11 2.13198e-12 2.13198e-12 2.13198e-12 2.13198e-12 4.25305e-12 4.25305e-12 4.25305e-12 4.25305e-12 2.01782e-11 2.01782e-11 2.01782e-11 2.01782e-11 9.67042e-11 9.67042e-11 9.67042e-11 9.67042e-11 1.3658e-11 1.3658e-11 1.3658e-11 1.3658e-11 2.9799e-10 2.9799e-10 2.9799e-10 2.9799e-10 2.95568e-10 2.95568e-10 2.95568e-10 2.95568e-10 9.24708e-10 9.24708e-10 9.24708e-10 9.24708e-10 
SCALARS cell_div_diff double 1
LOOKUP_TABLE default
9.25063e-10 9.25063e-10 9.25063e-10 9.25063e-10 2.95628e-10 2.95628e-10 2.95628e-10 2.95628e-10 2.98065e-10 2.98065e-10 2.98065e-10 2.98065e-10 1.37812e-11 1.37812e-11 1.37812e-11 1.37812e-11 9.66949e-11 9.66949e-11 9.66949e-11 9.66949e-11 2.01708e-11 2.01708e-11 2.01708e-11 2.01708e-11 4.28769e-12 4.28769e-12 4.28769e-12 4.28769e-12 2.11711e-12 2.11711e-12 2.11711e-12 2.11711e-12 9.70718e-11 9.70718e-11 9.70718e-11 9.70718e-11 5.63557e-12 5.63557e-12 5.63557e-12 5.63557e-12 2.64906e-11 2.64906e-11 2.64906e-11 2.64906e-11 1.04186e-11 1.04186e-11 1.04186e-11 1.04186e-11 3.86442e-12 3.86442e-12 3.86442e-12 3.86442e-12 2.06105e-12 2.06105e-12 2.06105e-12 2.06105e-12 7.02469e-12 7.02469e-12 7.02469e-12 7.02469e-12 2.94592e-12 2.94592e-12 2.94592e-12 2.94592e-12 2.01621e-11 2.01621e-11 2.01621e-11 2.01621e-11 9.67165e-11 9.67165e-11 9.67165e-11 9.67165e-11 1.75038e-12 1.75038e-12 1.75038e-12 1.75038e-12 4.25486e-12 4.25486e-12 4.25486e-12 4.25486e-12 2.95668e-10 2.95668e-10 2.95668e-10 2.95668e-10 9.25109e-10 9.25109e-10 9.25109e-10 9.25109e-10 1.38024e-11 1.38024e-11 1.38024e-11 1.38024e-11 2.98102e-10 2.98102e-10 2.98102e-10 2.98102e-10 1.41098e-12 1.41098e-12 1.41098e-12 1.41098e-12 3.47313e-12 3.47313e-12 3.47313e-12 3.47313e-12 2.45809e-12 2.45809e-12 2.45809e-12 2.45809e-12 6.48103e-12 6.48103e-12 6.48103e-12 6.48103e-12 5.7175e-12 5.7175e-12 5.7175e-12 5.7175e-12 9.70483e-11 9.70483e-11 9.70483e-11 9.70483e-11 1.0378e-11 1.0378e-11 1.0378e-11 1.0378e-11 2.67813e-11 2.67813e-11 2.67813e-11 2.67813e-11 2.64711e-11 2.64711e-11 2.64711e-11 2.64711e-11 1.03185e-11 1.03185e-11 1.03185e-11 1.03185e-11 9.70914e-11 9.70914e-11 9.70914e-11 9.70914e-11 5.66955e-12 5.66955e-12 5.66955e-12 5.66955e-12 6.86901e-12 6.86901e-12 6.86901e-12 6.86901e-12 2.66699e-12 2.66699e-12 2.66699e-12 2.66699e-12 3.50624e-12 3.50624e-12 3.50624e-12 3.50624e-12 1.52608e-12 1.52608e-12 1.52608e-12 1.52608e-12 2.98095e-10 2.98095e-10 2.98095e-10 2.98095e-10 1.37551e-11 1.37551e-11 1.37551e-11 1.37551e-11 9.24745e-10 9.24745e-10 9.24745e-10 9.24745e-10 2.95625e-10 2.95625e-10 2.95625e-10 2.95625e-10 4.30513e-12 4.30513e-12 4.30513e-12 4.30513e-12 1.71074e-12 1.71074e-12 1.71074e-12 1.71074e-12 9.67085e-11 9.67085e-11 9.67085e-11 9.67085e-11 2.01672e-11 2.01672e-11 2.01672e-11 2.01672e-11 2.60074e-12 2.60074e-12 2.60074e-12 2.60074e-12 6.57397e-12 6.57397e-12 6.57397e-12 6.57397e-12 1.97645e-12 1.97645e-12 1.97645e-12 1.97645e-12 3.68736e-12 3.68736e-12 3.68736e-12 3.68736e-12 1.0275e-11 1.0275e-11 1.0275e-11 1.0275e-11 2.67762e-11 2.67762e-11 2.67762e-11 2.67762e-11 5.55849e-12 5.55849e-12 5.55849e-12 5.55849e-12 9.70324e-11 9.70324e-11 9.70324e-11 9.70324e-11 2.13059e-12 2.13059e-12 2.13059e-12 2.13059e-12 4.25281e-12 4.25281e-12 4.25281e-12 4.25281e-12 2.01781e-11 2.01781e-11 2.01781e-11 2.01781e-11 9.67041e-11 9.67041e-11 9.67041e-11 9.67041e-11 1.36573e-11 1.36573e-11 1.36573e-11 1.36573e-11 2.9799e-10 2.9799e-10 2.9799e-10 2.9799e-10 2.95568e-10 2.95568e-10 2.95568e-10 2.95568e-10 9.24708e-10 9.24708e-10 9.24708e-10 9.24708e-10 
SCALARS global_l2_diff double 1
LOOKUP_TABLE default
2.23319e-09 2.23319e-09 2.23319e-09 2.23319e-09 8.47051e-09 8.47051e-09 8.47051e-09 8.47051e-09 8.47057e-09 8.47057e-09 8.47057e-09 8.47057e-09 2.51279e-08 2.51279e-08 2.51279e-08 2.51279e-08 1.63822e-08 1.63822e-08 1.63822e-08 1.63822e-08 2.19018e-08 2.19018e-08 2.19018e-08 2.19018e-08 4.12026e-08 4.12026e-08 4.12026e-08 4.12026e-08 5.14384e-08 5.14384e-08 5.14384e-08 5.14384e-08 1.63822e-08 1.63822e-08 1.63822e-08 1.63822e-08 4.12026e-08 4.12026e-08 4.12026e-08 4.12026e-08 2.19018e-08 2.19018e-08 2.19018e-08 2.19018e-08 5.14384e-08 5.14384e-08 5.14384e-08 5.14384e-08 5.25728e-08 5.25728e-08 5.25728e-08 5.25728e-08 5.33153e-08 5.33153e-08 5.33153e-08 5.33153e-08 5.33153e-08 5.33153e-08 5.33153e-08 5.33153e-08 3.08925e-08 3.08925e-08 3.08925e-08 3.08925e-08 2.19018e-08 2.19018e-08 2.19018e-08 2.19018e-08 1.63822e-08 1.63822e-08 1.63822e-08 1.63822e-08 5.14384e-08 5.14384e-08 5.14384e-08 5.14384e-08 4.12026e-08 4.12026e-08 4.12026e-08 4.12026e-08 8.47051e-09 8.47051e-09 8.47051e-09 8.47051e-09 2.23319e-09 2.23319e-09 2.23319e-09 2.23319e-09 2.51279e-08 2.51279e-08 2.51279e-08 2.51279e-08 8.47057e-09 8.47057e-09 8.47057e-09 8.47057e-09 5.33153e-08 5.33153e-08 5.33153e-08 5.33153e-08 5.25728e-08 5.25728e-08 5.25728e-08 5.25728e-08 3.08925e-08 3.08925e-08 3.08925e-08 3.08925e-08 5.33153e-08 5.33153e-08 5.33153e-08 5.33153e-08 4.12026e-08 4.12026e-08 4.12026e-08 4.12026e-08 1.63822e-08 1.63822e-08 1.63822e-08 1.63822e-08 5.14384e-08 5.14384e-08 5.14384e-08 5.14384e-08 2.19018e-08 2.19018e-08 2.19018e-08 2.19018e-08 2.19018e-08 2.19018e-08 2.19018e-08 2.19018e-08 5.14384e-08 5.14384e-08 5.14384e-08 5.14384e-08 1.63822e-08 1.63822e-08 1.63822e-08 1.63822e-08 4.12026e-08 4.12026e-08 4.12026e-08 4.12026e-08 5.33153e-08 5.33153e-08 5.33153e-08 5.33153e-08 3.08925e-08 3.08925e-08 3.08925e-08 3.08925e-08 5.25728e-08 5.25728e-08 5.25728e-08 5.25728e-08 5.33153e-08 5.33153e-08 5.33153e-08 5.33153e-08 8.47051e-09 8.47051e-09 8.47051e-09 8.47051e-09 2.51279e-08 2.51279e-08 2.51279e-08 2.51279e-08 2.2332e-09 2.2332e-09 2.2332e-09 2.2332e-09 8.47056e-09 8.47056e-09 8.47056e-09 8.47056e-09 4.12026e-08 4.12026e-08 4.12026e-08 4.12026e-08 5.14384e-08 5.14384e-08 5.14384e-08 5.14384e-08 1.63822e-08 1.63822e-08 1.63822e-08 1.63822e-08 2.19018e-08 2.19018e-08 2.19018e-08 2.19018e-08 3.08925e-08 3.08925e-08 3.08925e-08 3.08925e-08 5.33153e-08 5.33153e-08 5.33153e-08 5.33153e-08 5.33153e-08 5.33153e-08 5.33153e-08 5.33153e-08 5.25728e-08 5.25728e-08 5.25728e-08 5.25728e-08 5.14384e-08 5.14384e-08 5.14384e-08 5.14384e-08 2.19018e-08 2.19018e-08 2.19018e-08 2.19018e-08 4.12026e-08 4.12026e-08 4.12026e-08 4.12026e-08 1.63822e-08 1.63822e-08 1.63822e-08 1.63822e-08 5.14384e-08 5.14384e-08 5.14384e-08 5.14384e-08 4.12026e-08 4.12026e-08 4.12026e-08 4.12026e-08 2.19018e-08 2.19018e-08 2.19018e-08 2.19018e-08 1.63822e-08 1.63822e-08 1.63822e-08 1.63822e-08 2.51279e-08 2.51279e-08 2.51279e-08 2.51279e-08 8.47051e-09 8.47051e-09 8.47051e-09 8.47051e-09 8.47056e-09 8.47056e-09 8.47056e-09 8.47056e-09 2.2332e-09 2.2332e-09 2.2332e-09 2.2332e-09 
SCALARS global_h1_diff double 1
LOOKUP_TABLE default
2.87407e-07 2.87407e-07 2.87407e-07 2.87407e-07 1.09202e-06 1.09202e-06 1.09202e-06 1.09202e-06 1.09201e-06 1.09201e-06 1.09201e-06 1.09201e-06 3.17687e-06 3.17687e-06 3.17687e-06 3.17687e-06 2.12506e-06 2.12506e-06 2.12506e-06 2.12506e-06 2.84709e-06 2.84709e-06 2.84709e-06 2.84709e-06 5.2164e-06 5.2164e-06 5.2164e-06 5.2164e-06 6.5207e-06 6.5207e-06 6.5207e-06 6.5207e-06 2.12507e-06 2.12507e-06 2.12507e-06 2.12507e-06 5.2164e-06 5.2164e-06 5.2164e-06 5.2164e-06 2.84709e-06 2.84709e-06 2.84709e-06 2.84709e-06 6.5207e-06 6.5207e-06 6.5207e-06 6.5207e-06 6.65801e-06 6.65801e-06 6.65801e-06 6.65801e-06 6.77075e-06 6.77075e-06 6.77075e-06 6.77075e-06 6.77075e-06 6.77075e-06 6.77075e-06 6.77075e-06 4.01619e-06 4.01619e-06 4.01619e-06 4.01619e-06 2.84709e-06 2.84709e-06 2.84709e-06 2.84709e-06 2.12506e-06 2.12506e-06 2.12506e-06 2.12506e-06 6.5207e-06 6.5207e-06 6.5207e-06 6.5207e-06 5.2164e-06 5.2164e-06 5.2164e-06 5.2164e-06 1.09202e-06 1.09202e-06 1.09202e-06 1.09202e-06 2.87407e-07 2.87407e-07 2.87407e-07 2.87407e-07 3.17687e-06 3.17687e-06 3.17687e-06 3.17687e-06 1.09201e-06 1.09201e-06 1.09201e-06 1.09201e-06 6.77075e-06 6.77075e-06 6.77075e-06 6.77075e-06 6.65801e-06 6.65801e-06 6.65801e-06 6.65801e-06 4.01619e-06 4.01619e-06 4.01619e-06 4.01619e-06 6.77075e-06 6.77075e-06 6.77075e-06 6.77075e-06 5.2164e-06 5.2164e-06 5.2164e-06 5.2164e-06 2.12507e-06 2.12507e-06 2.12507e-06 2.12507e-06 6.5207e-06 6.5207e-06 6.5207e-06 6.5207e-06 2.8471e-06 2.8471e-06 2.8471e-06 2.8471e-06 2.84709e-06 2.84709e-06 2.84709e-06 2.84709e-06 6.5207e-06 6.5207e-06 6.5207e-06 6.5207e-06 2.12506e-06 2.12506e-06 2.12506e-06 2.12506e-06 5.2164e-06 5.2164e-06 5.2164e-06 5.2164e-06 6.77075e-06 6.77075e-06 6.77075e-06 6.77075e-06 4.01619e-06 4.01619e-06 4.01619e-06 4.01619e-06 6.65801e-06 6.65801e-06 6.65801e-06 6.65801e-06 6.77075e-06 6.77075e-06 6.77075e-06 6.77075e-06 1.09202e-06 1.09202e-06 1.09202e-06 1.09202e-06 3.17687e-06 3.17687e-06 3.17687e-06 3.17687e-06 2.87407e-07 2.87407e-07 2.87407e-07 2.87407e-07 1.09201e-06 1.09201e-06 1.09201e-06 1.09201e-06 5.2164e-06 5.2164e-06 5.2164e-06 5.2164e-06 6.5207e-06 6.5207e-06 6.5207e-06 6.5207e-06 2.12506e-06 2.12506e-06 2.12506e-06 2.12506e-06 2.84709e-06 2.84709e-06 2.84709e-06 2.84709e-06 4.01619e-06 4.01619e-06 4.01619e-06 4.01619e-06 6.77075e-06 6.77075e-06 6.77075e-06 6.77075e-06 6.77075e-06 6.77075e-06 6.77075e-06 6.77075e-06 6.65801e-06 6.65801e-06 6.65801e-06 6.65801e-06 6.5207e-06 6.5207e-06 6.5207e-06 6.5207e-06 2.84709e-06 2.84709e-06 2.84709e-06 2.84709e-06 5.2164e-06 5.2164e-06 5.2164e-06 5.2164e-06 2.12506e-06 2.12506e-06 2.12506e-06 2.12506e-06 6.5207e-06 6.5207e-06 6.5207e-06 6.5207e-06 5.2164e-06 5.2164e-06 5.2164e-06 5.2164e-06 2.84709e-06 2.84709e-06 2.84709e-06 2.84709e-06 2.12506e-06 2.12506e-06 2.12506e-06 2.12506e-06 3.17687e-06 3.17687e-06 3.17687e-06 3.17687e-06 1.09202e-06 1.09202e-06 1.09202e-06 1.09202e-06 1.09201e-06 1.09201e-06 1.09201e-06 1.09201e-06 2.87407e-07 2.87407e-07 2.87407e-07 2.87407e-07 
