# vtk DataFile Version 3.0
#This file was generated by the deal.II library on 2017/9/21 at 12:01:17
ASCII
DATASET UNSTRUCTURED_GRID

POINTS 64 double
0 0 0
0.25 0 0
0 0.25 0
0.25 0.25 0
0.25 0 0
0.5 0 0
0.25 0.25 0
0.5 0.25 0
0 0.25 0
0.25 0.25 0
0 0.5 0
0.25 0.5 0
0.25 0.25 0
0.5 0.25 0
0.25 0.5 0
0.5 0.5 0
0.5 0 0
0.75 0 0
0.5 0.25 0
0.75 0.25 0
0.75 0 0
1 0 0
0.75 0.25 0
1 0.25 0
0.5 0.25 0
0.75 0.25 0
0.5 0.5 0
0.75 0.5 0
0.75 0.25 0
1 0.25 0
0.75 0.5 0
1 0.5 0
0 0.5 0
0.25 0.5 0
0 0.75 0
0.25 0.75 0
0.25 0.5 0
0.5 0.5 0
0.25 0.75 0
0.5 0.75 0
0 0.75 0
0.25 0.75 0
0 1 0
0.25 1 0
0.25 0.75 0
0.5 0.75 0
0.25 1 0
0.5 1 0
0.5 0.5 0
0.75 0.5 0
0.5 0.75 0
0.75 0.75 0
0.75 0.5 0
1 0.5 0
0.75 0.75 0
1 0.75 0
0.5 0.75 0
0.75 0.75 0
0.5 1 0
0.75 1 0
0.75 0.75 0
1 0.75 0
0.75 1 0
1 1 0

CELLS 16 80
4	0	1	3	2
4	4	5	7	6
4	8	9	11	10
4	12	13	15	14
4	16	17	19	18
4	20	21	23	22
4	24	25	27	26
4	28	29	31	30
4	32	33	35	34
4	36	37	39	38
4	40	41	43	42
4	44	45	47	46
4	48	49	51	50
4	52	53	55	54
4	56	57	59	58
4	60	61	63	62

CELL_TYPES 16
 9 9 9 9 9 9 9 9 9 9 9 9 9 9 9 9
POINT_DATA 64
VECTORS velocity double
0 0 0
8.44106e-06 0 0
0 -8.44103e-06 0
1.5708 -1.5708 0
8.44106e-06 0 0
1.69432e-05 0 0
1.5708 -1.5708 0
3.14159 -8.44102e-06 0
0 -8.44103e-06 0
1.5708 -1.5708 0
0 -1.69431e-05 0
8.44094e-06 -3.14159 0
1.5708 -1.5708 0
3.14159 -8.44102e-06 0
8.44094e-06 -3.14159 0
1.69529e-05 -1.69529e-05 0
1.69432e-05 0 0
8.44106e-06 0 0
3.14159 8.44101e-06 0
1.5708 1.5708 0
8.44106e-06 0 0
0 0 0
1.5708 1.5708 0
0 8.44103e-06 0
3.14159 8.44101e-06 0
1.5708 1.5708 0
1.69529e-05 1.69528e-05 0
8.44094e-06 3.14159 0
1.5708 1.5708 0
0 8.44103e-06 0
8.44094e-06 3.14159 0
0 1.69431e-05 0
0 -1.69431e-05 0
-8.44109e-06 -3.14159 0
0 -8.44134e-06 0
-1.5708 -1.5708 0
-8.44109e-06 -3.14159 0
-1.69529e-05 -1.69529e-05 0
-1.5708 -1.5708 0
-3.14159 -8.44102e-06 0
0 -8.44134e-06 0
-1.5708 -1.5708 0
0 0 0
-8.4413e-06 0 0
-1.5708 -1.5708 0
-3.14159 -8.44102e-06 0
-8.4413e-06 0 0
-1.6943e-05 0 0
-1.69529e-05 1.69528e-05 0
-8.44109e-06 3.14159 0
-3.14159 8.44101e-06 0
-1.5708 1.5708 0
-8.44109e-06 3.14159 0
0 1.69431e-05 0
-1.5708 1.5708 0
0 8.44134e-06 0
-3.14159 8.44101e-06 0
-1.5708 1.5708 0
-1.6943e-05 0 0
-8.4413e-06 0 0
-1.5708 1.5708 0
0 8.44134e-06 0
-8.4413e-06 0 0
0 0 0
SCALARS pressure double 1
LOOKUP_TABLE default
2.2995e-07 4.67257e-05 0.707061 0.5 4.81377e-05 -1.54842e-05 0.500001 -9.14913e-05 0.70706 0.499999 1.00002 0.707199 0.5 -9.23032e-05 0.7072 1.24059e-07 1.54843e-05 -4.81378e-05 9.14911e-05 -0.500001 -4.67257e-05 -2.34983e-07 -0.5 -0.707061 9.23029e-05 -0.5 -1.2412e-07 -0.7072 -0.499999 -0.70706 -0.707199 -1.00002 0.999985 0.707016 0.707155 0.500002 0.707015 1.24119e-07 0.5 9.24807e-05 0.707154 0.5 2.3323e-07 -4.64225e-05 0.499999 9.16692e-05 -4.75619e-05 1.55495e-05 -1.24102e-07 -0.707015 -9.24808e-05 -0.5 -0.707016 -0.999985 -0.500002 -0.707155 -9.16692e-05 -0.499999 -1.55495e-05 4.7562e-05 -0.5 -0.707154 4.64225e-05 -2.30812e-07 
SCALARS global_div_diff double 1
LOOKUP_TABLE default
6.963e-10 6.963e-10 6.963e-10 6.963e-10 6.75703e-10 6.75703e-10 6.75703e-10 6.75703e-10 1.00771e-09 1.00771e-09 1.00771e-09 1.00771e-09 4.13763e-11 4.13763e-11 4.13763e-11 4.13763e-11 6.76114e-10 6.76114e-10 6.76114e-10 6.76114e-10 6.9605e-10 6.9605e-10 6.9605e-10 6.9605e-10 4.19989e-11 4.19989e-11 4.19989e-11 4.19989e-11 1.00783e-09 1.00783e-09 1.00783e-09 1.00783e-09 1.00783e-09 1.00783e-09 1.00783e-09 1.00783e-09 4.14957e-11 4.14957e-11 4.14957e-11 4.14957e-11 6.95548e-10 6.95548e-10 6.95548e-10 6.95548e-10 6.76152e-10 6.76152e-10 6.76152e-10 6.76152e-10 4.10655e-11 4.10655e-11 4.10655e-11 4.10655e-11 1.00766e-09 1.00766e-09 1.00766e-09 1.00766e-09 6.75687e-10 6.75687e-10 6.75687e-10 6.75687e-10 6.95899e-10 6.95899e-10 6.95899e-10 6.95899e-10 
SCALARS cell_div_diff double 1
LOOKUP_TABLE default
6.963e-10 6.963e-10 6.963e-10 6.963e-10 6.75703e-10 6.75703e-10 6.75703e-10 6.75703e-10 1.00771e-09 1.00771e-09 1.00771e-09 1.00771e-09 4.13745e-11 4.13745e-11 4.13745e-11 4.13745e-11 6.76117e-10 6.76117e-10 6.76117e-10 6.76117e-10 6.96051e-10 6.96051e-10 6.96051e-10 6.96051e-10 4.19977e-11 4.19977e-11 4.19977e-11 4.19977e-11 1.00783e-09 1.00783e-09 1.00783e-09 1.00783e-09 1.00783e-09 1.00783e-09 1.00783e-09 1.00783e-09 4.14944e-11 4.14944e-11 4.14944e-11 4.14944e-11 6.95548e-10 6.95548e-10 6.95548e-10 6.95548e-10 6.76153e-10 6.76153e-10 6.76153e-10 6.76153e-10 4.10658e-11 4.10658e-11 4.10658e-11 4.10658e-11 1.00766e-09 1.00766e-09 1.00766e-09 1.00766e-09 6.75687e-10 6.75687e-10 6.75687e-10 6.75687e-10 6.95899e-10 6.95899e-10 6.95899e-10 6.95899e-10 
SCALARS global_l2_diff double 1
LOOKUP_TABLE default
1.68058e-06 1.68058e-06 1.68058e-06 1.68058e-06 4.22215e-06 4.22215e-06 4.22215e-06 4.22215e-06 4.22215e-06 4.22215e-06 4.22215e-06 4.22215e-06 5.72921e-06 5.72921e-06 5.72921e-06 5.72921e-06 4.22215e-06 4.22215e-06 4.22215e-06 4.22215e-06 1.68058e-06 1.68058e-06 1.68058e-06 1.68058e-06 5.72921e-06 5.72921e-06 5.72921e-06 5.72921e-06 4.22215e-06 4.22215e-06 4.22215e-06 4.22215e-06 4.22215e-06 4.22215e-06 4.22215e-06 4.22215e-06 5.72921e-06 5.72921e-06 5.72921e-06 5.72921e-06 1.68058e-06 1.68058e-06 1.68058e-06 1.68058e-06 4.22215e-06 4.22215e-06 4.22215e-06 4.22215e-06 5.72921e-06 5.72921e-06 5.72921e-06 5.72921e-06 4.22215e-06 4.22215e-06 4.22215e-06 4.22215e-06 4.22215e-06 4.22215e-06 4.22215e-06 4.22215e-06 1.68058e-06 1.68058e-06 1.68058e-06 1.68058e-06 
SCALARS global_h1_diff double 1
LOOKUP_TABLE default
0.000115251 0.000115251 0.000115251 0.000115251 0.000292311 0.000292311 0.000292311 0.000292311 0.000292311 0.000292311 0.000292311 0.000292311 0.000397019 0.000397019 0.000397019 0.000397019 0.000292311 0.000292311 0.000292311 0.000292311 0.000115251 0.000115251 0.000115251 0.000115251 0.000397019 0.000397019 0.000397019 0.000397019 0.000292311 0.000292311 0.000292311 0.000292311 0.000292311 0.000292311 0.000292311 0.000292311 0.000397019 0.000397019 0.000397019 0.000397019 0.000115251 0.000115251 0.000115251 0.000115251 0.000292311 0.000292311 0.000292311 0.000292311 0.000397019 0.000397019 0.000397019 0.000397019 0.000292311 0.000292311 0.000292311 0.000292311 0.000292311 0.000292311 0.000292311 0.000292311 0.000115251 0.000115251 0.000115251 0.000115251 
