# vtk DataFile Version 3.0
#This file was generated by the deal.II library on 2017/9/21 at 11:21:26
ASCII
DATASET UNSTRUCTURED_GRID

POINTS 4 double
0 0 0
1 0 0
0 1 0
1 1 0

CELLS 1 5
4	0	1	3	2

CELL_TYPES 1
 9
POINT_DATA 4
VECTORS velocity double
0 0 0
0 0 0
0 0 0
0 0 0
SCALARS pressure double 1
LOOKUP_TABLE default
-0.0635664 0.0635664 -0.0635664 0.0635664 
SCALARS global_div_diff double 1
LOOKUP_TABLE default
8.70528e-16 8.70528e-16 8.70528e-16 8.70528e-16 
SCALARS cell_div_diff double 1
LOOKUP_TABLE default
7.29372e-16 7.29372e-16 7.29372e-16 7.29372e-16 
SCALARS global_l2_diff double 1
LOOKUP_TABLE default
1.5671 1.5671 1.5671 1.5671 
SCALARS global_h1_diff double 1
LOOKUP_TABLE default
13.8214 13.8214 13.8214 13.8214 
