# vtk DataFile Version 3.0
#This file was generated by the deal.II library on 2017/9/21 at 11:21:26
ASCII
DATASET UNSTRUCTURED_GRID

POINTS 16 double
0 0 0
0.5 0 0
0 0.5 0
0.5 0.5 0
0.5 0 0
1 0 0
0.5 0.5 0
1 0.5 0
0 0.5 0
0.5 0.5 0
0 1 0
0.5 1 0
0.5 0.5 0
1 0.5 0
0.5 1 0
1 1 0

CELLS 4 20
4	0	1	3	2
4	4	5	7	6
4	8	9	11	10
4	12	13	15	14

CELL_TYPES 4
 9 9 9 9
POINT_DATA 16
VECTORS velocity double
0 0 0
-0.120458 0 0
0 0.120458 0
-0.120198 0.120197 0
-0.120458 0 0
0 0 0
-0.120198 -0.120197 0
0 -0.120458 0
0 0.120458 0
0.120197 0.120197 0
0 0 0
0.120458 0 0
0.120197 -0.120197 0
0 -0.120458 0
0.120458 0 0
0 0 0
SCALARS pressure double 1
LOOKUP_TABLE default
-0.0248185 0.028482 1.01119 -0.0248143 -0.028482 0.0248185 0.0248143 -1.01119 1.06697 -0.0248143 -0.0248185 -0.0273011 0.0248143 -1.06697 0.0273011 0.0248185 
SCALARS global_div_diff double 1
LOOKUP_TABLE default
1.81975e-10 1.81975e-10 1.81975e-10 1.81975e-10 1.92877e-10 1.92877e-10 1.92877e-10 1.92877e-10 2.11198e-10 2.11198e-10 2.11198e-10 2.11198e-10 2.02443e-10 2.02443e-10 2.02443e-10 2.02443e-10 
SCALARS cell_div_diff double 1
LOOKUP_TABLE default
1.81975e-10 1.81975e-10 1.81975e-10 1.81975e-10 1.92875e-10 1.92875e-10 1.92875e-10 1.92875e-10 2.112e-10 2.112e-10 2.112e-10 2.112e-10 2.02444e-10 2.02444e-10 2.02444e-10 2.02444e-10 
SCALARS global_l2_diff double 1
LOOKUP_TABLE default
0.0253086 0.0253086 0.0253086 0.0253086 0.0253086 0.0253086 0.0253086 0.0253086 0.0253086 0.0253086 0.0253086 0.0253086 0.0253086 0.0253086 0.0253086 0.0253086 
SCALARS global_h1_diff double 1
LOOKUP_TABLE default
0.824381 0.824381 0.824381 0.824381 0.824381 0.824381 0.824381 0.824381 0.824381 0.824381 0.824381 0.824381 0.824381 0.824381 0.824381 0.824381 
