# vtk DataFile Version 3.0
#This file was generated by the deal.II library on 2017/9/21 at 11:21:52
ASCII
DATASET UNSTRUCTURED_GRID

POINTS 4096 double
0 0 0
0.03125 0 0
0 0.03125 0
0.03125 0.03125 0
0.03125 0 0
0.0625 0 0
0.03125 0.03125 0
0.0625 0.03125 0
0 0.03125 0
0.03125 0.03125 0
0 0.0625 0
0.03125 0.0625 0
0.03125 0.03125 0
0.0625 0.03125 0
0.03125 0.0625 0
0.0625 0.0625 0
0.0625 0 0
0.09375 0 0
0.0625 0.03125 0
0.09375 0.03125 0
0.09375 0 0
0.125 0 0
0.09375 0.03125 0
0.125 0.03125 0
0.0625 0.03125 0
0.09375 0.03125 0
0.0625 0.0625 0
0.09375 0.0625 0
0.09375 0.03125 0
0.125 0.03125 0
0.09375 0.0625 0
0.125 0.0625 0
0 0.0625 0
0.03125 0.0625 0
0 0.09375 0
0.03125 0.09375 0
0.03125 0.0625 0
0.0625 0.0625 0
0.03125 0.09375 0
0.0625 0.09375 0
0 0.09375 0
0.03125 0.09375 0
0 0.125 0
0.03125 0.125 0
0.03125 0.09375 0
0.0625 0.09375 0
0.03125 0.125 0
0.0625 0.125 0
0.0625 0.0625 0
0.09375 0.0625 0
0.0625 0.09375 0
0.09375 0.09375 0
0.09375 0.0625 0
0.125 0.0625 0
0.09375 0.09375 0
0.125 0.09375 0
0.0625 0.09375 0
0.09375 0.09375 0
0.0625 0.125 0
0.09375 0.125 0
0.09375 0.09375 0
0.125 0.09375 0
0.09375 0.125 0
0.125 0.125 0
0.125 0 0
0.15625 0 0
0.125 0.03125 0
0.15625 0.03125 0
0.15625 0 0
0.1875 0 0
0.15625 0.03125 0
0.1875 0.03125 0
0.125 0.03125 0
0.15625 0.03125 0
0.125 0.0625 0
0.15625 0.0625 0
0.15625 0.03125 0
0.1875 0.03125 0
0.15625 0.0625 0
0.1875 0.0625 0
0.1875 0 0
0.21875 0 0
0.1875 0.03125 0
0.21875 0.03125 0
0.21875 0 0
0.25 0 0
0.21875 0.03125 0
0.25 0.03125 0
0.1875 0.03125 0
0.21875 0.03125 0
0.1875 0.0625 0
0.21875 0.0625 0
0.21875 0.03125 0
0.25 0.03125 0
0.21875 0.0625 0
0.25 0.0625 0
0.125 0.0625 0
0.15625 0.0625 0
0.125 0.09375 0
0.15625 0.09375 0
0.15625 0.0625 0
0.1875 0.0625 0
0.15625 0.09375 0
0.1875 0.09375 0
0.125 0.09375 0
0.15625 0.09375 0
0.125 0.125 0
0.15625 0.125 0
0.15625 0.09375 0
0.1875 0.09375 0
0.15625 0.125 0
0.1875 0.125 0
0.1875 0.0625 0
0.21875 0.0625 0
0.1875 0.09375 0
0.21875 0.09375 0
0.21875 0.0625 0
0.25 0.0625 0
0.21875 0.09375 0
0.25 0.09375 0
0.1875 0.09375 0
0.21875 0.09375 0
0.1875 0.125 0
0.21875 0.125 0
0.21875 0.09375 0
0.25 0.09375 0
0.21875 0.125 0
0.25 0.125 0
0 0.125 0
0.03125 0.125 0
0 0.15625 0
0.03125 0.15625 0
0.03125 0.125 0
0.0625 0.125 0
0.03125 0.15625 0
0.0625 0.15625 0
0 0.15625 0
0.03125 0.15625 0
0 0.1875 0
0.03125 0.1875 0
0.03125 0.15625 0
0.0625 0.15625 0
0.03125 0.1875 0
0.0625 0.1875 0
0.0625 0.125 0
0.09375 0.125 0
0.0625 0.15625 0
0.09375 0.15625 0
0.09375 0.125 0
0.125 0.125 0
0.09375 0.15625 0
0.125 0.15625 0
0.0625 0.15625 0
0.09375 0.15625 0
0.0625 0.1875 0
0.09375 0.1875 0
0.09375 0.15625 0
0.125 0.15625 0
0.09375 0.1875 0
0.125 0.1875 0
0 0.1875 0
0.03125 0.1875 0
0 0.21875 0
0.03125 0.21875 0
0.03125 0.1875 0
0.0625 0.1875 0
0.03125 0.21875 0
0.0625 0.21875 0
0 0.21875 0
0.03125 0.21875 0
0 0.25 0
0.03125 0.25 0
0.03125 0.21875 0
0.0625 0.21875 0
0.03125 0.25 0
0.0625 0.25 0
0.0625 0.1875 0
0.09375 0.1875 0
0.0625 0.21875 0
0.09375 0.21875 0
0.09375 0.1875 0
0.125 0.1875 0
0.09375 0.21875 0
0.125 0.21875 0
0.0625 0.21875 0
0.09375 0.21875 0
0.0625 0.25 0
0.09375 0.25 0
0.09375 0.21875 0
0.125 0.21875 0
0.09375 0.25 0
0.125 0.25 0
0.125 0.125 0
0.15625 0.125 0
0.125 0.15625 0
0.15625 0.15625 0
0.15625 0.125 0
0.1875 0.125 0
0.15625 0.15625 0
0.1875 0.15625 0
0.125 0.15625 0
0.15625 0.15625 0
0.125 0.1875 0
0.15625 0.1875 0
0.15625 0.15625 0
0.1875 0.15625 0
0.15625 0.1875 0
0.1875 0.1875 0
0.1875 0.125 0
0.21875 0.125 0
0.1875 0.15625 0
0.21875 0.15625 0
0.21875 0.125 0
0.25 0.125 0
0.21875 0.15625 0
0.25 0.15625 0
0.1875 0.15625 0
0.21875 0.15625 0
0.1875 0.1875 0
0.21875 0.1875 0
0.21875 0.15625 0
0.25 0.15625 0
0.21875 0.1875 0
0.25 0.1875 0
0.125 0.1875 0
0.15625 0.1875 0
0.125 0.21875 0
0.15625 0.21875 0
0.15625 0.1875 0
0.1875 0.1875 0
0.15625 0.21875 0
0.1875 0.21875 0
0.125 0.21875 0
0.15625 0.21875 0
0.125 0.25 0
0.15625 0.25 0
0.15625 0.21875 0
0.1875 0.21875 0
0.15625 0.25 0
0.1875 0.25 0
0.1875 0.1875 0
0.21875 0.1875 0
0.1875 0.21875 0
0.21875 0.21875 0
0.21875 0.1875 0
0.25 0.1875 0
0.21875 0.21875 0
0.25 0.21875 0
0.1875 0.21875 0
0.21875 0.21875 0
0.1875 0.25 0
0.21875 0.25 0
0.21875 0.21875 0
0.25 0.21875 0
0.21875 0.25 0
0.25 0.25 0
0.25 0 0
0.28125 0 0
0.25 0.03125 0
0.28125 0.03125 0
0.28125 0 0
0.3125 0 0
0.28125 0.03125 0
0.3125 0.03125 0
0.25 0.03125 0
0.28125 0.03125 0
0.25 0.0625 0
0.28125 0.0625 0
0.28125 0.03125 0
0.3125 0.03125 0
0.28125 0.0625 0
0.3125 0.0625 0
0.3125 0 0
0.34375 0 0
0.3125 0.03125 0
0.34375 0.03125 0
0.34375 0 0
0.375 0 0
0.34375 0.03125 0
0.375 0.03125 0
0.3125 0.03125 0
0.34375 0.03125 0
0.3125 0.0625 0
0.34375 0.0625 0
0.34375 0.03125 0
0.375 0.03125 0
0.34375 0.0625 0
0.375 0.0625 0
0.25 0.0625 0
0.28125 0.0625 0
0.25 0.09375 0
0.28125 0.09375 0
0.28125 0.0625 0
0.3125 0.0625 0
0.28125 0.09375 0
0.3125 0.09375 0
0.25 0.09375 0
0.28125 0.09375 0
0.25 0.125 0
0.28125 0.125 0
0.28125 0.09375 0
0.3125 0.09375 0
0.28125 0.125 0
0.3125 0.125 0
0.3125 0.0625 0
0.34375 0.0625 0
0.3125 0.09375 0
0.34375 0.09375 0
0.34375 0.0625 0
0.375 0.0625 0
0.34375 0.09375 0
0.375 0.09375 0
0.3125 0.09375 0
0.34375 0.09375 0
0.3125 0.125 0
0.34375 0.125 0
0.34375 0.09375 0
0.375 0.09375 0
0.34375 0.125 0
0.375 0.125 0
0.375 0 0
0.40625 0 0
0.375 0.03125 0
0.40625 0.03125 0
0.40625 0 0
0.4375 0 0
0.40625 0.03125 0
0.4375 0.03125 0
0.375 0.03125 0
0.40625 0.03125 0
0.375 0.0625 0
0.40625 0.0625 0
0.40625 0.03125 0
0.4375 0.03125 0
0.40625 0.0625 0
0.4375 0.0625 0
0.4375 0 0
0.46875 0 0
0.4375 0.03125 0
0.46875 0.03125 0
0.46875 0 0
0.5 0 0
0.46875 0.03125 0
0.5 0.03125 0
0.4375 0.03125 0
0.46875 0.03125 0
0.4375 0.0625 0
0.46875 0.0625 0
0.46875 0.03125 0
0.5 0.03125 0
0.46875 0.0625 0
0.5 0.0625 0
0.375 0.0625 0
0.40625 0.0625 0
0.375 0.09375 0
0.40625 0.09375 0
0.40625 0.0625 0
0.4375 0.0625 0
0.40625 0.09375 0
0.4375 0.09375 0
0.375 0.09375 0
0.40625 0.09375 0
0.375 0.125 0
0.40625 0.125 0
0.40625 0.09375 0
0.4375 0.09375 0
0.40625 0.125 0
0.4375 0.125 0
0.4375 0.0625 0
0.46875 0.0625 0
0.4375 0.09375 0
0.46875 0.09375 0
0.46875 0.0625 0
0.5 0.0625 0
0.46875 0.09375 0
0.5 0.09375 0
0.4375 0.09375 0
0.46875 0.09375 0
0.4375 0.125 0
0.46875 0.125 0
0.46875 0.09375 0
0.5 0.09375 0
0.46875 0.125 0
0.5 0.125 0
0.25 0.125 0
0.28125 0.125 0
0.25 0.15625 0
0.28125 0.15625 0
0.28125 0.125 0
0.3125 0.125 0
0.28125 0.15625 0
0.3125 0.15625 0
0.25 0.15625 0
0.28125 0.15625 0
0.25 0.1875 0
0.28125 0.1875 0
0.28125 0.15625 0
0.3125 0.15625 0
0.28125 0.1875 0
0.3125 0.1875 0
0.3125 0.125 0
0.34375 0.125 0
0.3125 0.15625 0
0.34375 0.15625 0
0.34375 0.125 0
0.375 0.125 0
0.34375 0.15625 0
0.375 0.15625 0
0.3125 0.15625 0
0.34375 0.15625 0
0.3125 0.1875 0
0.34375 0.1875 0
0.34375 0.15625 0
0.375 0.15625 0
0.34375 0.1875 0
0.375 0.1875 0
0.25 0.1875 0
0.28125 0.1875 0
0.25 0.21875 0
0.28125 0.21875 0
0.28125 0.1875 0
0.3125 0.1875 0
0.28125 0.21875 0
0.3125 0.21875 0
0.25 0.21875 0
0.28125 0.21875 0
0.25 0.25 0
0.28125 0.25 0
0.28125 0.21875 0
0.3125 0.21875 0
0.28125 0.25 0
0.3125 0.25 0
0.3125 0.1875 0
0.34375 0.1875 0
0.3125 0.21875 0
0.34375 0.21875 0
0.34375 0.1875 0
0.375 0.1875 0
0.34375 0.21875 0
0.375 0.21875 0
0.3125 0.21875 0
0.34375 0.21875 0
0.3125 0.25 0
0.34375 0.25 0
0.34375 0.21875 0
0.375 0.21875 0
0.34375 0.25 0
0.375 0.25 0
0.375 0.125 0
0.40625 0.125 0
0.375 0.15625 0
0.40625 0.15625 0
0.40625 0.125 0
0.4375 0.125 0
0.40625 0.15625 0
0.4375 0.15625 0
0.375 0.15625 0
0.40625 0.15625 0
0.375 0.1875 0
0.40625 0.1875 0
0.40625 0.15625 0
0.4375 0.15625 0
0.40625 0.1875 0
0.4375 0.1875 0
0.4375 0.125 0
0.46875 0.125 0
0.4375 0.15625 0
0.46875 0.15625 0
0.46875 0.125 0
0.5 0.125 0
0.46875 0.15625 0
0.5 0.15625 0
0.4375 0.15625 0
0.46875 0.15625 0
0.4375 0.1875 0
0.46875 0.1875 0
0.46875 0.15625 0
0.5 0.15625 0
0.46875 0.1875 0
0.5 0.1875 0
0.375 0.1875 0
0.40625 0.1875 0
0.375 0.21875 0
0.40625 0.21875 0
0.40625 0.1875 0
0.4375 0.1875 0
0.40625 0.21875 0
0.4375 0.21875 0
0.375 0.21875 0
0.40625 0.21875 0
0.375 0.25 0
0.40625 0.25 0
0.40625 0.21875 0
0.4375 0.21875 0
0.40625 0.25 0
0.4375 0.25 0
0.4375 0.1875 0
0.46875 0.1875 0
0.4375 0.21875 0
0.46875 0.21875 0
0.46875 0.1875 0
0.5 0.1875 0
0.46875 0.21875 0
0.5 0.21875 0
0.4375 0.21875 0
0.46875 0.21875 0
0.4375 0.25 0
0.46875 0.25 0
0.46875 0.21875 0
0.5 0.21875 0
0.46875 0.25 0
0.5 0.25 0
0 0.25 0
0.03125 0.25 0
0 0.28125 0
0.03125 0.28125 0
0.03125 0.25 0
0.0625 0.25 0
0.03125 0.28125 0
0.0625 0.28125 0
0 0.28125 0
0.03125 0.28125 0
0 0.3125 0
0.03125 0.3125 0
0.03125 0.28125 0
0.0625 0.28125 0
0.03125 0.3125 0
0.0625 0.3125 0
0.0625 0.25 0
0.09375 0.25 0
0.0625 0.28125 0
0.09375 0.28125 0
0.09375 0.25 0
0.125 0.25 0
0.09375 0.28125 0
0.125 0.28125 0
0.0625 0.28125 0
0.09375 0.28125 0
0.0625 0.3125 0
0.09375 0.3125 0
0.09375 0.28125 0
0.125 0.28125 0
0.09375 0.3125 0
0.125 0.3125 0
0 0.3125 0
0.03125 0.3125 0
0 0.34375 0
0.03125 0.34375 0
0.03125 0.3125 0
0.0625 0.3125 0
0.03125 0.34375 0
0.0625 0.34375 0
0 0.34375 0
0.03125 0.34375 0
0 0.375 0
0.03125 0.375 0
0.03125 0.34375 0
0.0625 0.34375 0
0.03125 0.375 0
0.0625 0.375 0
0.0625 0.3125 0
0.09375 0.3125 0
0.0625 0.34375 0
0.09375 0.34375 0
0.09375 0.3125 0
0.125 0.3125 0
0.09375 0.34375 0
0.125 0.34375 0
0.0625 0.34375 0
0.09375 0.34375 0
0.0625 0.375 0
0.09375 0.375 0
0.09375 0.34375 0
0.125 0.34375 0
0.09375 0.375 0
0.125 0.375 0
0.125 0.25 0
0.15625 0.25 0
0.125 0.28125 0
0.15625 0.28125 0
0.15625 0.25 0
0.1875 0.25 0
0.15625 0.28125 0
0.1875 0.28125 0
0.125 0.28125 0
0.15625 0.28125 0
0.125 0.3125 0
0.15625 0.3125 0
0.15625 0.28125 0
0.1875 0.28125 0
0.15625 0.3125 0
0.1875 0.3125 0
0.1875 0.25 0
0.21875 0.25 0
0.1875 0.28125 0
0.21875 0.28125 0
0.21875 0.25 0
0.25 0.25 0
0.21875 0.28125 0
0.25 0.28125 0
0.1875 0.28125 0
0.21875 0.28125 0
0.1875 0.3125 0
0.21875 0.3125 0
0.21875 0.28125 0
0.25 0.28125 0
0.21875 0.3125 0
0.25 0.3125 0
0.125 0.3125 0
0.15625 0.3125 0
0.125 0.34375 0
0.15625 0.34375 0
0.15625 0.3125 0
0.1875 0.3125 0
0.15625 0.34375 0
0.1875 0.34375 0
0.125 0.34375 0
[...]
POINT_DATA 4096
VECTORS velocity double
0 0 0
-8.5232e-07 0 0
0 8.52666e-07 0
0.00588913 -0.00588914 0
-8.5232e-07 0 0
-3.41063e-06 0 0
0.00588913 -0.0058875 0
0.0233303 -0.0115511 0
0 8.52666e-07 0
0.0058875 -0.00588914 0
0 3.4112e-06 0
0.0115511 -0.0233303 0
0.0058875 -0.0058875 0
0.0233236 -0.0115511 0
0.0115511 -0.0233236 0
0.0457606 -0.0457606 0
-3.41063e-06 0 0
-7.56524e-06 0 0
0.0233303 -0.0115496 0
0.0516532 -0.0167692 0
-7.56524e-06 0 0
-1.31563e-05 0 0
0.0516532 -0.0167678 0
0.0897693 -0.0213428 0
0.0233236 -0.0115496 0
0.0516384 -0.0167692 0
0.0457606 -0.0457543 0
0.101314 -0.0664323 0
0.0516384 -0.0167678 0
0.0897436 -0.0213428 0
0.101314 -0.0664266 0
0.176076 -0.084551 0
0 3.4112e-06 0
0.0115496 -0.0233303 0
0 7.56545e-06 0
0.0167692 -0.0516532 0
0.0115496 -0.0233236 0
0.0457543 -0.0457606 0
0.0167692 -0.0516384 0
0.0664323 -0.101314 0
0 7.56545e-06 0
0.0167678 -0.0516532 0
0 1.31563e-05 0
0.0213428 -0.0897693 0
0.0167678 -0.0516384 0
0.0664266 -0.101314 0
0.0213428 -0.0897436 0
0.084551 -0.176076 0
0.0457543 -0.0457543 0
0.1013 -0.0664323 0
0.0664323 -0.1013 0
0.147081 -0.147081 0
0.1013 -0.0664266 0
0.176051 -0.084551 0
0.147081 -0.147068 0
0.255616 -0.187196 0
0.0664266 -0.1013 0
0.147068 -0.147081 0
0.084551 -0.176051 0
0.187196 -0.255616 0
0.147068 -0.147068 0
0.255594 -0.187196 0
0.187196 -0.255594 0
0.325332 -0.325332 0
-1.31563e-05 0 0
-1.9969e-05 0 0
0.0897693 -0.0213416 0
0.136214 -0.0250962 0
-1.9969e-05 0 0
-2.77415e-05 0 0
0.136214 -0.0250953 0
0.189202 -0.0278852 0
0.0897436 -0.0213416 0
0.136175 -0.0250962 0
0.176076 -0.0845462 0
0.267173 -0.0994205 0
0.136175 -0.0250953 0
0.189148 -0.0278852 0
0.267173 -0.0994168 0
0.371106 -0.110469 0
-2.77415e-05 0 0
-3.61751e-05 0 0
0.189202 -0.0278846 0
0.246698 -0.0296026 0
-3.61751e-05 0 0
-4.49458e-05 0 0
0.246698 -0.0296023 0
0.306491 -0.0301824 0
0.189148 -0.0278846 0
0.246627 -0.0296026 0
0.371106 -0.110467 0
0.483879 -0.117273 0
0.246627 -0.0296023 0
0.306403 -0.0301824 0
0.483879 -0.117272 0
0.60116 -0.11957 0
0.176051 -0.0845462 0
0.267136 -0.0994205 0
0.255616 -0.187185 0
0.387865 -0.220117 0
0.267136 -0.0994168 0
0.371055 -0.110469 0
0.387865 -0.220108 0
0.538748 -0.244579 0
0.255594 -0.187185 0
0.387832 -0.220117 0
0.325332 -0.325314 0
0.493652 -0.382546 0
0.387832 -0.220108 0
0.538702 -0.244579 0
0.493652 -0.382532 0
0.685686 -0.42506 0
0.371055 -0.110467 0
0.483812 -0.117273 0
0.538748 -0.244573 0
0.702465 -0.259642 0
0.483812 -0.117272 0
0.601077 -0.11957 0
0.702465 -0.259639 0
0.872726 -0.264727 0
0.538702 -0.244573 0
0.702405 -0.259642 0
0.685686 -0.42505 0
0.894056 -0.451238 0
0.702405 -0.259639 0
0.872651 -0.264727 0
0.894056 -0.451233 0
1.11075 -0.460076 0
0 1.31563e-05 0
0.0213416 -0.0897693 0
0 1.9969e-05 0
0.0250962 -0.136214 0
0.0213416 -0.0897436 0
0.0845462 -0.176076 0
0.0250962 -0.136175 0
0.0994205 -0.267173 0
0 1.9969e-05 0
0.0250953 -0.136214 0
0 2.77415e-05 0
0.0278852 -0.189202 0
0.0250953 -0.136175 0
0.0994168 -0.267173 0
0.0278852 -0.189148 0
0.110469 -0.371106 0
0.0845462 -0.176051 0
0.187185 -0.255616 0
0.0994205 -0.267136 0
0.220117 -0.387865 0
0.187185 -0.255594 0
0.325314 -0.325332 0
0.220117 -0.387832 0
0.382546 -0.493652 0
0.0994168 -0.267136 0
0.220108 -0.387865 0
0.110469 -0.371055 0
0.244579 -0.538748 0
0.220108 -0.387832 0
0.382532 -0.493652 0
0.244579 -0.538702 0
0.42506 -0.685686 0
0 2.77415e-05 0
0.0278846 -0.189202 0
0 3.61751e-05 0
0.0296026 -0.246698 0
0.0278846 -0.189148 0
0.110467 -0.371106 0
0.0296026 -0.246627 0
0.117273 -0.483879 0
0 3.61751e-05 0
0.0296023 -0.246698 0
0 4.49458e-05 0
0.0301824 -0.306491 0
0.0296023 -0.246627 0
0.117272 -0.483879 0
0.0301824 -0.306403 0
0.11957 -0.60116 0
0.110467 -0.371055 0
0.244573 -0.538748 0
0.117273 -0.483812 0
0.259642 -0.702465 0
0.244573 -0.538702 0
0.42505 -0.685686 0
0.259642 -0.702405 0
0.451238 -0.894056 0
0.117272 -0.483812 0
0.259639 -0.702465 0
0.11957 -0.601077 0
0.264727 -0.872726 0
0.259639 -0.702405 0
0.451233 -0.894056 0
0.264727 -0.872651 0
0.460076 -1.11075 0
0.325314 -0.325314 0
0.493624 -0.382546 0
0.382546 -0.493624 0
0.580468 -0.580468 0
0.493624 -0.382532 0
0.685647 -0.42506 0
0.580468 -0.580445 0
0.806274 -0.644976 0
0.382532 -0.493624 0
0.580445 -0.580468 0
0.42506 -0.685647 0
0.644976 -0.806274 0
0.580445 -0.580445 0
0.806243 -0.644976 0
0.644976 -0.806243 0
0.895877 -0.895877 0
0.685647 -0.42505 0
0.894005 -0.451238 0
0.806274 -0.644961 0
1.05129 -0.684699 0
0.894005 -0.451233 0
1.11069 -0.460076 0
1.05129 -0.684691 0
1.3061 -0.698109 0
0.806243 -0.644961 0
1.05125 -0.684699 0
0.895877 -0.895856 0
1.16812 -0.951053 0
1.05125 -0.684691 0
1.30605 -0.698109 0
1.16812 -0.951042 0
1.45124 -0.969679 0
0.42505 -0.685647 0
0.644961 -0.806274 0
0.451238 -0.894005 0
0.684699 -1.05129 0
0.644961 -0.806243 0
0.895856 -0.895877 0
0.684699 -1.05125 0
0.951053 -1.16812 0
0.451233 -0.894005 0
0.684691 -1.05129 0
0.460076 -1.11069 0
0.698109 -1.3061 0
0.684691 -1.05125 0
0.951042 -1.16812 0
0.698109 -1.30605 0
0.969679 -1.45124 0
0.895856 -0.895856 0
1.16809 -0.951053 0
0.951053 -1.16809 0
1.24006 -1.24006 0
1.16809 -0.951042 0
1.45121 -0.969679 0
1.24006 -1.24005 0
1.54062 -1.26435 0
0.951042 -1.16809 0
1.24005 -1.24006 0
0.969679 -1.45121 0
1.26435 -1.54062 0
1.24005 -1.24005 0
1.54061 -1.26435 0
1.26435 -1.54061 0
1.5708 -1.5708 0
-4.49458e-05 0 0
-5.37165e-05 0 0
0.306491 -0.0301824 0
0.366285 -0.0296023 0
-5.37165e-05 0 0
-6.21501e-05 0 0
0.366285 -0.0296026 0
0.423781 -0.0278846 0
0.306403 -0.0301824 0
0.36618 -0.0296023 0
0.60116 -0.11957 0
0.71844 -0.117272 0
0.36618 -0.0296026 0
0.423659 -0.0278846 0
0.71844 -0.117273 0
0.831214 -0.110467 0
-6.21501e-05 0 0
-6.99226e-05 0 0
0.423781 -0.0278852 0
0.476769 -0.0250953 0
-6.99226e-05 0 0
-7.67352e-05 0 0
0.476769 -0.0250962 0
0.523214 -0.0213416 0
0.423659 -0.0278852 0
0.476632 -0.0250953 0
0.831214 -0.110469 0
0.935146 -0.0994167 0
0.476632 -0.0250962 0
0.523063 -0.0213416 0
0.935146 -0.0994205 0
1.02624 -0.0845462 0
0.601077 -0.11957 0
0.718341 -0.117272 0
0.872726 -0.264727 0
1.04299 -0.259639 0
0.718341 -0.117273 0
0.831099 -0.110467 0
1.04299 -0.259642 0
1.2067 -0.244573 0
0.872651 -0.264727 0
1.0429 -0.259639 0
1.11075 -0.460076 0
1.32745 -0.451233 0
1.0429 -0.259642 0
1.2066 -0.244573 0
1.32745 -0.451238 0
1.53582 -0.42505 0
0.831099 -0.110469 0
0.935017 -0.0994167 0
1.2067 -0.244579 0
1.35759 -0.220108 0
0.935017 -0.0994205 0
1.0261 -0.0845462 0
1.35759 -0.220117 0
1.48984 -0.187185 0
1.2066 -0.244579 0
1.35747 -0.220108 0
1.53582 -0.42506 0
1.72785 -0.382532 0
1.35747 -0.220117 0
1.48971 -0.187185 0
1.72785 -0.382546 0
1.89617 -0.325313 0
-7.67352e-05 0 0
-8.23262e-05 0 0
0.523214 -0.0213428 0
0.56133 -0.0167677 0
-8.23262e-05 0 0
-8.64807e-05 0 0
0.56133 -0.0167691 0
0.589653 -0.0115495 0
0.523063 -0.0213428 0
0.561168 -0.0167677 0
1.02624 -0.084551 0
1.10101 -0.0664266 0
0.561168 -0.0167691 0
0.589483 -0.0115495 0
1.10101 -0.0664322 0
1.15656 -0.0457542 0
-8.64807e-05 0 0
-8.9039e-05 0 0
0.589653 -0.0115511 0
0.607094 -0.00588748 0
-8.9039e-05 0 0
-8.99028e-05 0 0
0.607094 -0.00588911 0
0.612983 8.32845e-07 0
0.589483 -0.0115511 0
0.606919 -0.00588748 0
1.15656 -0.0457605 0
1.19077 -0.0233236 0
0.606919 -0.00588911 0
0.612806 8.32845e-07 0
1.19077 -0.0233302 0
1.20232 3.39226e-06 0
1.0261 -0.084551 0
1.10085 -0.0664266 0
1.48984 -0.187196 0
1.59837 -0.147068 0
1.10085 -0.0664322 0
1.1564 -0.0457542 0
1.59837 -0.147081 0
1.67902 -0.1013 0
1.48971 -0.187196 0
1.59823 -0.147068 0
1.89617 -0.325332 0
2.03431 -0.255594 0
1.59823 -0.147081 0
1.67888 -0.1013 0
2.03431 -0.255615 0
2.13696 -0.176051 0
1.1564 -0.0457605 0
1.1906 -0.0233236 0
1.67902 -0.101314 0
1.72868 -0.0516383 0
1.1906 -0.0233302 0
1.20215 3.39226e-06 0
1.72868 -0.0516531 0
1.74545 7.54861e-06 0
1.67888 -0.101314 0
1.72853 -0.0516383 0
2.13696 -0.176076 0
2.20016 -0.0897435 0
1.72853 -0.0516531 0
1.7453 7.54861e-06 0
2.20016 -0.0897692 0
2.22151 1.31421e-05 0
1.11069 -0.460076 0
1.32737 -0.451233 0
1.3061 -0.698109 0
1.5609 -0.684691 0
1.32737 -0.451238 0
1.53573 -0.42505 0
1.5609 -0.684699 0
1.80592 -0.644961 0
1.30605 -0.698109 0
1.56084 -0.684691 0
1.45124 -0.969679 0
1.73437 -0.951042 0
1.56084 -0.684699 0
1.80585 -0.644961 0
1.73437 -0.951053 0
2.00661 -0.895856 0
1.53573 -0.42506 0
1.72776 -0.382532 0
1.80592 -0.644976 0
2.03172 -0.580445 0
1.72776 -0.382546 0
1.89607 -0.325313 0
2.03172 -0.580468 0
2.22964 -0.493624 0
1.80585 -0.644976 0
2.03165 -0.580445 0
2.00661 -0.895877 0
2.25751 -0.806243 0
2.03165 -0.580468 0
2.22956 -0.493624 0
2.25751 -0.806274 0
2.47743 -0.685647 0
1.45121 -0.969679 0
1.73433 -0.951042 0
1.54062 -1.26435 0
1.84118 -1.24005 0
1.73433 -0.951053 0
2.00656 -0.895856 0
1.84118 -1.24006 0
2.1302 -1.16809 0
1.54061 -1.26435 0
1.84116 -1.24005 0
1.5708 -1.5708 0
1.87724 -1.54061 0
1.84116 -1.24006 0
2.13017 -1.16809 0
1.87724 -1.54062 0
2.17192 -1.45121 0
2.00656 -0.895877 0
2.25746 -0.806243 0
2.1302 -1.16812 0
2.39655 -1.05125 0
2.25746 -0.806274 0
2.47737 -0.685647 0
2.39655 -1.05129 0
2.63001 -0.894005 0
2.13017 -1.16812 0
2.39652 -1.05125 0
2.17192 -1.45124 0
2.44349 -1.30605 0
2.39652 -1.05129 0
2.62998 -0.894005 0
2.44349 -1.3061 0
2.68152 -1.11069 0
1.89607 -0.325332 0
2.03419 -0.255594 0
2.22964 -0.493652 0
2.39207 -0.387832 0
2.03419 -0.255615 0
2.13683 -0.176051 0
2.39207 -0.387865 0
2.51277 -0.267136 0
2.22956 -0.493652 0
2.39198 -0.387832 0
2.47743 -0.685686 0
2.65791 -0.538702 0
2.39198 -0.387865 0
2.51267 -0.267136 0
2.65791 -0.538748 0
2.79202 -0.371055 0
2.13683 -0.176076 0
2.20004 -0.0897435 0
2.51277 -0.267173 0
2.58709 -0.136175 0
2.20004 -0.0897692 0
2.22138 1.31421e-05 0
2.58709 -0.136214 0
2.61219 1.99578e-05 0
2.51267 -0.267173 0
2.587 -0.136175 0
2.79202 -0.371106 0
2.8746 -0.189148 0
2.587 -0.136214 0
2.61209 1.99578e-05 0
2.8746 -0.189202 0
2.90249 2.77338e-05 0
2.47737 -0.685686 0
2.65785 -0.538702 0
2.63001 -0.894056 0
2.82161 -0.702405 0
2.65785 -0.538748 0
2.79195 -0.371055 0
2.82161 -0.702465 0
2.96397 -0.483812 0
2.62998 -0.894056 0
2.82157 -0.702405 0
2.68152 -1.11075 0
2.87687 -0.872651 0
2.82157 -0.702465 0
2.96394 -0.483812 0
2.87687 -0.872726 0
3.02203 -0.601077 0
2.79195 -0.371106 0
2.87454 -0.189148 0
2.96397 -0.483879 0
3.05165 -0.246627 0
2.87454 -0.189202 0
2.90242 2.77338e-05 0
3.05165 -0.246698 0
3.08125 3.61712e-05 0
2.96394 -0.483879 0
3.05161 -0.246627 0
3.02203 -0.60116 0
3.11141 -0.306403 0
3.05161 -0.246698 0
3.08121 3.61712e-05 0
3.11141 -0.306491 0
3.1416 4.49459e-05 0
0 4.49458e-05 0
0.0301824 -0.306491 0
0 5.37165e-05 0
0.0296023 -0.366285 0
0.0301824 -0.306403 0
0.11957 -0.60116 0
0.0296023 -0.36618 0
0.117272 -0.71844 0
0 5.37165e-05 0
0.0296026 -0.366285 0
0 6.21501e-05 0
0.0278846 -0.423781 0
0.0296026 -0.36618 0
0.117273 -0.71844 0
0.0278846 -0.423659 0
0.110467 -0.831214 0
0.11957 -0.601077 0
0.264727 -0.872726 0
0.117272 -0.718341 0
0.259639 -1.04299 0
0.264727 -0.872651 0
0.460076 -1.11075 0
0.259639 -1.0429 0
0.451233 -1.32745 0
0.117273 -0.718341 0
0.259642 -1.04299 0
0.110467 -0.831099 0
0.244573 -1.2067 0
0.259642 -1.0429 0
0.451238 -1.32745 0
0.244573 -1.2066 0
0.42505 -1.53582 0
0 6.21501e-05 0
0.0278852 -0.423781 0
0 6.99226e-05 0
0.0250953 -0.476769 0
0.0278852 -0.423659 0
0.110469 -0.831214 0
0.0250953 -0.476632 0
0.0994167 -0.935146 0
0 6.99226e-05 0
0.0250962 -0.476769 0
0 7.67352e-05 0
0.0213416 -0.523214 0
0.0250962 -0.476632 0
0.0994205 -0.935146 0
0.0213416 -0.523063 0
0.0845462 -1.02624 0
0.110469 -0.831099 0
0.244579 -1.2067 0
0.0994167 -0.935017 0
0.220108 -1.35759 0
0.244579 -1.2066 0
0.42506 -1.53582 0
0.220108 -1.35747 0
0.382532 -1.72785 0
0.0994205 -0.935017 0
0.220117 -1.35759 0
0.0845462 -1.0261 0
0.187185 -1.48984 0
0.220117 -1.35747 0
0.382546 -1.72785 0
0.187185 -1.48971 0
0.325313 -1.89617 0
0.460076 -1.11069 0
0.698109 -1.3061 0
0.451233 -1.32737 0
0.684691 -1.5609 0
0.698109 -1.30605 0
0.969679 -1.45124 0
0.684691 -1.56084 0
0.951042 -1.73437 0
0.451238 -1.32737 0
0.684699 -1.5609 0
0.42505 -1.53573 0
0.644961 -1.80592 0
0.684699 -1.56084 0
0.951053 -1.73437 0
0.644961 -1.80585 0
0.895856 -2.00661 0
0.969679 -1.45121 0
1.26435 -1.54062 0
0.951042 -1.73433 0
1.24005 -1.84118 0
1.26435 -1.54061 0
1.5708 -1.5708 0
1.24005 -1.84116 0
1.54061 -1.87724 0
0.951053 -1.73433 0
1.24006 -1.84118 0
0.895856 -2.00656 0
1.16809 -2.1302 0
1.24006 -1.84116 0
1.54062 -1.87724 0
1.16809 -2.13017 0
1.45121 -2.17192 0
0.42506 -1.53573 0
0.644976 -1.80592 0
0.382532 -1.72776 0
0.580445 -2.03172 0
0.644976 -1.80585 0
0.895877 -2.00661 0
0.580445 -2.03165 0
0.806243 -2.25751 0
0.382546 -1.72776 0
0.580468 -2.03172 0
0.325313 -1.89607 0
0.493624 -2.22964 0
0.580468 -2.03165 0
0.806274 -2.25751 0
0.493624 -2.22956 0
0.685647 -2.47743 0
0.895877 -2.00656 0
1.16812 -2.1302 0
0.806243 -2.25746 0
1.05125 -2.39655 0
1.16812 -2.13017 0
1.45124 -2.17192 0
1.05125 -2.39652 0
1.30605 -2.44349 0
0.806274 -2.25746 0
1.05129 -2.39655 0
0.685647 -2.47737 0
0.894005 -2.63001 0
1.05129 -2.39652 0
1.3061 -2.44349 0
0.894005 -2.62998 0
1.11069 -2.68152 0
0 7.67352e-05 0
0.0213428 -0.523214 0
0 8.23262e-05 0
0.0167677 -0.56133 0
0.0213428 -0.523063 0
0.084551 -1.02624 0
0.0167677 -0.561168 0
0.0664266 -1.10101 0
0 8.23262e-05 0
0.0167691 -0.56133 0
0 8.64807e-05 0
0.0115495 -0.589653 0
0.0167691 -0.561168 0
0.0664322 -1.10101 0
0.0115495 -0.589483 0
0.0457542 -1.15656 0
0.084551 -1.0261 0
0.187196 -1.48984 0
0.0664266 -1.10085 0
0.147068 -1.59837 0
0.187196 -1.48971 0
0.325332 -1.89617 0
0.147068 -1.59823 0
0.255594 -2.03431 0
0.0664322 -1.10085 0
0.147081 -1.59837 0
0.0457542 -1.1564 0
0.1013 -1.67902 0
0.147081 -1.59823 0
0.255615 -2.03431 0
0.1013 -1.67888 0
0.176051 -2.13696 0
0 8.64807e-05 0
0.0115511 -0.589653 0
0 8.9039e-05 0
0.00588748 -0.607094 0
0.0115511 -0.589483 0
0.0457605 -1.15656 0
0.00588748 -0.606919 0
0.0233236 -1.19077 0
0 8.9039e-05 0
0.00588911 -0.607094 0
0 8.99028e-05 0
-8.32752e-07 -0.612983 0
0.00588911 -0.606919 0
0.0233302 -1.19077 0
-8.32752e-07 -0.612806 0
-3.39213e-06 -1.20232 0
0.0457605 -1.1564 0
0.101314 -1.67902 0
0.0233236 -1.1906 0
0.0516383 -1.72868 0
0.101314 -1.67888 0
0.176076 -2.13696 0
0.0516383 -1.72853 0
0.0897435 -2.20016 0
0.0233302 -1.1906 0
0.0516531 -1.72868 0
-3.39213e-06 -1.20215 0
-7.54846e-06 -1.74545 0
0.0516531 -1.72853 0
0.0897692 -2.20016 0
-7.54846e-06 -1.7453 0
-1.3142e-05 -2.22151 0
0.325332 -1.89607 0
0.493652 -2.22964 0
0.255594 -2.03419 0
0.387832 -2.39207 0
0.493652 -2.22956 0
0.685686 -2.47743 0
0.387832 -2.39198 0
0.538702 -2.65791 0
0.255615 -2.03419 0
0.387865 -2.39207 0
0.176051 -2.13683 0
0.267136 -2.51277 0
0.387865 -2.39198 0
0.538748 -2.65791 0
0.267136 -2.51267 0
0.371055 -2.79202 0
0.685686 -2.47737 0
0.894056 -2.63001 0
0.538702 -2.65785 0
0.702405 -2.82161 0
0.894056 -2.62998 0
1.11075 -2.68152 0
0.702405 -2.82157 0
0.872651 -2.87687 0
0.538748 -2.65785 0
0.702465 -2.82161 0
0.371055 -2.79195 0
0.483812 -2.96397 0
0.702465 -2.82157 0
0.872726 -2.87687 0
0.483812 -2.96394 0
0.601077 -3.02203 0
0.176076 -2.13683 0
0.267173 -2.51277 0
0.0897435 -2.20004 0
0.136175 -2.58709 0
0.267173 -2.51267 0
0.371106 -2.79202 0
0.136175 -2.587 0
0.189148 -2.8746 0
0.0897692 -2.20004 0
0.136214 -2.58709 0
-1.3142e-05 -2.22138 0
-1.99577e-05 -2.61219 0
0.136214 -2.587 0
0.189202 -2.8746 0
-1.99577e-05 -2.61209 0
-2.77337e-05 -2.90249 0
0.371106 -2.79195 0
0.483879 -2.96397 0
0.189148 -2.87454 0
0.246627 -3.05165 0
0.483879 -2.96394 0
0.60116 -3.02203 0
0.246627 -3.05161 0
0.306403 -3.11141 0
0.189202 -2.87454 0
0.246698 -3.05165 0
-2.77337e-05 -2.90242 0
-3.61711e-05 -3.08125 0
0.246698 -3.05161 0
0.306491 -3.11141 0
-3.61711e-05 -3.08121 0
-4.49458e-05 -3.1416 0
1.5708 -1.5708 0
1.87724 -1.54061 0
1.54061 -1.87724 0
1.84116 -1.84116 0
1.87724 -1.54062 0
2.17192 -1.45121 0
1.84116 -1.84118 0
2.13017 -1.73433 0
1.54062 -1.87724 0
1.84118 -1.84116 0
1.45121 -2.17192 0
1.73433 -2.13017 0
1.84118 -1.84118 0
2.1302 -1.73433 0
1.73433 -2.1302 0
2.00656 -2.00656 0
2.17192 -1.45124 0
2.44349 -1.30605 0
2.13017 -1.73437 0
2.39652 -1.56084 0
2.44349 -1.3061 0
2.68152 -1.11069 0
2.39652 -1.5609 0
2.62998 -1.32737 0
2.1302 -1.73437 0
2.39655 -1.56084 0
2.00656 -2.00661 0
2.25746 -1.80585 0
2.39655 -1.5609 0
2.63001 -1.32737 0
2.25746 -1.80592 0
2.47737 -1.53573 0
1.45124 -2.17192 0
1.73437 -2.13017 0
1.30605 -2.44349 0
1.56084 -2.39652 0
1.73437 -2.1302 0
2.00661 -2.00656 0
1.56084 -2.39655 0
1.80585 -2.25746 0
1.3061 -2.44349 0
1.5609 -2.39652 0
1.11069 -2.68152 0
1.32737 -2.62998 0
1.5609 -2.39655 0
1.80592 -2.25746 0
1.32737 -2.63001 0
1.53573 -2.47737 0
2.00661 -2.00661 0
2.25751 -1.80585 0
1.80585 -2.25751 0
2.03165 -2.03165 0
2.25751 -1.80592 0
2.47743 -1.53573 0
2.03165 -2.03172 0
2.22956 -1.72776 0
1.80592 -2.25751 0
2.03172 -2.03165 0
1.53573 -2.47743 0
1.72776 -2.22956 0
2.03172 -2.03172 0
2.22964 -1.72776 0
1.72776 -2.22964 0
1.89607 -1.89607 0
2.68152 -1.11075 0
2.87687 -0.872651 0
2.62998 -1.32745 0
2.82157 -1.0429 0
2.87687 -0.872726 0
3.02203 -0.601077 0
2.82157 -1.04299 0
2.96394 -0.718341 0
2.63001 -1.32745 0
2.82161 -1.0429 0
2.47737 -1.53582 0
2.65785 -1.2066 0
2.82161 -1.04299 0
2.96398 -0.718341 0
2.65785 -1.2067 0
2.79195 -0.831099 0
3.02203 -0.60116 0
3.11141 -0.306403 0
2.96394 -0.71844 0
3.05161 -0.36618 0
3.11141 -0.306491 0
3.1416 4.49459e-05 0
3.05161 -0.366285 0
3.08121 5.37205e-05 0
2.96398 -0.71844 0
3.05165 -0.36618 0
2.79195 -0.831214 0
2.87454 -0.423659 0
3.05165 -0.366285 0
3.08125 5.37205e-05 0
2.87454 -0.423781 0
2.90242 6.21579e-05 0
2.47743 -1.53582 0
2.65791 -1.2066 0
2.22956 -1.72786 0
2.39198 -1.35747 0
2.65791 -1.2067 0
2.79202 -0.831099 0
2.39198 -1.35759 0
2.51267 -0.935017 0
2.22964 -1.72786 0
2.39207 -1.35747 0
1.89607 -1.89617 0
2.03419 -1.48971 0
2.39207 -1.35759 0
2.51277 -0.935017 0
2.03419 -1.48984 0
2.13683 -1.0261 0
2.79202 -0.831214 0
2.8746 -0.423659 0
2.51267 -0.935146 0
2.587 -0.476632 0
2.8746 -0.423781 0
2.90249 6.21579e-05 0
2.587 -0.476769 0
2.61209 6.99339e-05 0
2.51277 -0.935146 0
2.5871 -0.476632 0
2.13683 -1.02624 0
2.20004 -0.523063 0
2.5871 -0.476769 0
2.61219 6.99339e-05 0
2.20004 -0.523214 0
2.22138 7.67496e-05 0
1.11075 -2.68152 0
1.32745 -2.62998 0
0.872651 -2.87687 0
1.0429 -2.82157 0
1.32745 -2.63001 0
1.53582 -2.47737 0
1.0429 -2.82161 0
1.2066 -2.65785 0
0.872726 -2.87687 0
1.04299 -2.82157 0
0.601077 -3.02203 0
0.718341 -2.96394 0
1.04299 -2.82161 0
1.2067 -2.65785 0
0.718341 -2.96398 0
0.831099 -2.79195 0
1.53582 -2.47743 0
1.72786 -2.22956 0
1.2066 -2.65791 0
1.35747 -2.39198 0
1.72786 -2.22964 0
1.89617 -1.89607 0
1.35747 -2.39207 0
1.48971 -2.03419 0
1.2067 -2.65791 0
1.35759 -2.39198 0
0.831099 -2.79202 0
0.935017 -2.51267 0
1.35759 -2.39207 0
1.48984 -2.03419 0
0.935017 -2.51277 0
1.0261 -2.13683 0
0.60116 -3.02203 0
0.71844 -2.96394 0
0.306403 -3.11141 0
0.36618 -3.05161 0
0.71844 -2.96398 0
0.831214 -2.79195 0
0.36618 -3.05165 0
0.423659 -2.87454 0
0.306491 -3.11141 0
0.366285 -3.05161 0
-4.49458e-05 -3.1416 0
-5.37205e-05 -3.08121 0
0.366285 -3.05165 0
0.423781 -2.87454 0
-5.37205e-05 -3.08125 0
-6.21579e-05 -2.90242 0
0.831214 -2.79202 0
0.935146 -2.51267 0
0.423659 -2.8746 0
0.476632 -2.587 0
0.935146 -2.51277 0
1.02624 -2.13683 0
0.476632 -2.5871 0
0.523063 -2.20004 0
0.423781 -2.8746 0
0.476769 -2.587 0
-6.21579e-05 -2.90249 0
-6.99339e-05 -2.61209 0
0.476769 -2.5871 0
0.523214 -2.20004 0
-6.99339e-05 -2.61219 0
-7.67496e-05 -2.22138 0
1.89617 -1.89617 0
2.03431 -1.48971 0
1.48971 -2.03431 0
1.59823 -1.59823 0
2.03431 -1.48984 0
2.13696 -1.0261 0
1.59823 -1.59837 0
1.67888 -1.10085 0
1.48984 -2.03431 0
1.59837 -1.59823 0
1.0261 -2.13696 0
1.10085 -1.67888 0
1.59837 -1.59837 0
1.67902 -1.10085 0
1.10085 -1.67902 0
1.1564 -1.1564 0
2.13696 -1.02624 0
2.20016 -0.523063 0
1.67888 -1.10101 0
1.72853 -0.561168 0
2.20016 -0.523214 0
2.22151 7.67496e-05 0
1.72853 -0.56133 0
1.7453 8.23431e-05 0
1.67902 -1.10101 0
1.72868 -0.561168 0
1.1564 -1.15656 0
1.1906 -0.589483 0
1.72868 -0.56133 0
1.74545 8.23431e-05 0
1.1906 -0.589653 0
1.20215 8.64995e-05 0
1.02624 -2.13696 0
1.10101 -1.67888 0
0.523063 -2.20016 0