# vtk DataFile Version 3.0
#This file was generated by the deal.II library on 2017/9/21 at 11:29:55
ASCII
DATASET UNSTRUCTURED_GRID

POINTS 256 double
0 0 0
0.125 0 0
0 0.125 0
0.125 0.125 0
0.125 0 0
0.25 0 0
0.125 0.125 0
0.25 0.125 0
0 0.125 0
0.125 0.125 0
0 0.25 0
0.125 0.25 0
0.125 0.125 0
0.25 0.125 0
0.125 0.25 0
0.25 0.25 0
0.25 0 0
0.375 0 0
0.25 0.125 0
0.375 0.125 0
0.375 0 0
0.5 0 0
0.375 0.125 0
0.5 0.125 0
0.25 0.125 0
0.375 0.125 0
0.25 0.25 0
0.375 0.25 0
0.375 0.125 0
0.5 0.125 0
0.375 0.25 0
0.5 0.25 0
0 0.25 0
0.125 0.25 0
0 0.375 0
0.125 0.375 0
0.125 0.25 0
0.25 0.25 0
0.125 0.375 0
0.25 0.375 0
0 0.375 0
0.125 0.375 0
0 0.5 0
0.125 0.5 0
0.125 0.375 0
0.25 0.375 0
0.125 0.5 0
0.25 0.5 0
0.25 0.25 0
0.375 0.25 0
0.25 0.375 0
0.375 0.375 0
0.375 0.25 0
0.5 0.25 0
0.375 0.375 0
0.5 0.375 0
0.25 0.375 0
0.375 0.375 0
0.25 0.5 0
0.375 0.5 0
0.375 0.375 0
0.5 0.375 0
0.375 0.5 0
0.5 0.5 0
0.5 0 0
0.625 0 0
0.5 0.125 0
0.625 0.125 0
0.625 0 0
0.75 0 0
0.625 0.125 0
0.75 0.125 0
0.5 0.125 0
0.625 0.125 0
0.5 0.25 0
0.625 0.25 0
0.625 0.125 0
0.75 0.125 0
0.625 0.25 0
0.75 0.25 0
0.75 0 0
0.875 0 0
0.75 0.125 0
0.875 0.125 0
0.875 0 0
1 0 0
0.875 0.125 0
1 0.125 0
0.75 0.125 0
0.875 0.125 0
0.75 0.25 0
0.875 0.25 0
0.875 0.125 0
1 0.125 0
0.875 0.25 0
1 0.25 0
0.5 0.25 0
0.625 0.25 0
0.5 0.375 0
0.625 0.375 0
0.625 0.25 0
0.75 0.25 0
0.625 0.375 0
0.75 0.375 0
0.5 0.375 0
0.625 0.375 0
0.5 0.5 0
0.625 0.5 0
0.625 0.375 0
0.75 0.375 0
0.625 0.5 0
0.75 0.5 0
0.75 0.25 0
0.875 0.25 0
0.75 0.375 0
0.875 0.375 0
0.875 0.25 0
1 0.25 0
0.875 0.375 0
1 0.375 0
0.75 0.375 0
0.875 0.375 0
0.75 0.5 0
0.875 0.5 0
0.875 0.375 0
1 0.375 0
0.875 0.5 0
1 0.5 0
0 0.5 0
0.125 0.5 0
0 0.625 0
0.125 0.625 0
0.125 0.5 0
0.25 0.5 0
0.125 0.625 0
0.25 0.625 0
0 0.625 0
0.125 0.625 0
0 0.75 0
0.125 0.75 0
0.125 0.625 0
0.25 0.625 0
0.125 0.75 0
0.25 0.75 0
0.25 0.5 0
0.375 0.5 0
0.25 0.625 0
0.375 0.625 0
0.375 0.5 0
0.5 0.5 0
0.375 0.625 0
0.5 0.625 0
0.25 0.625 0
0.375 0.625 0
0.25 0.75 0
0.375 0.75 0
0.375 0.625 0
0.5 0.625 0
0.375 0.75 0
0.5 0.75 0
0 0.75 0
0.125 0.75 0
0 0.875 0
0.125 0.875 0
0.125 0.75 0
0.25 0.75 0
0.125 0.875 0
0.25 0.875 0
0 0.875 0
0.125 0.875 0
0 1 0
0.125 1 0
0.125 0.875 0
0.25 0.875 0
0.125 1 0
0.25 1 0
0.25 0.75 0
0.375 0.75 0
0.25 0.875 0
0.375 0.875 0
0.375 0.75 0
0.5 0.75 0
0.375 0.875 0
0.5 0.875 0
0.25 0.875 0
0.375 0.875 0
0.25 1 0
0.375 1 0
0.375 0.875 0
0.5 0.875 0
0.375 1 0
0.5 1 0
0.5 0.5 0
0.625 0.5 0
0.5 0.625 0
0.625 0.625 0
0.625 0.5 0
0.75 0.5 0
0.625 0.625 0
0.75 0.625 0
0.5 0.625 0
0.625 0.625 0
0.5 0.75 0
0.625 0.75 0
0.625 0.625 0
0.75 0.625 0
0.625 0.75 0
0.75 0.75 0
0.75 0.5 0
0.875 0.5 0
0.75 0.625 0
0.875 0.625 0
0.875 0.5 0
1 0.5 0
0.875 0.625 0
1 0.625 0
0.75 0.625 0
0.875 0.625 0
0.75 0.75 0
0.875 0.75 0
0.875 0.625 0
1 0.625 0
0.875 0.75 0
1 0.75 0
0.5 0.75 0
0.625 0.75 0
0.5 0.875 0
0.625 0.875 0
0.625 0.75 0
0.75 0.75 0
0.625 0.875 0
0.75 0.875 0
0.5 0.875 0
0.625 0.875 0
0.5 1 0
0.625 1 0
0.625 0.875 0
0.75 0.875 0
0.625 1 0
0.75 1 0
0.75 0.75 0
0.875 0.75 0
0.75 0.875 0
0.875 0.875 0
0.875 0.75 0
1 0.75 0
0.875 0.875 0
1 0.875 0
0.75 0.875 0
0.875 0.875 0
0.75 1 0
0.875 1 0
0.875 0.875 0
1 0.875 0
0.875 1 0
1 1 0

CELLS 64 320
4	0	1	3	2
4	4	5	7	6
4	8	9	11	10
4	12	13	15	14
4	16	17	19	18
4	20	21	23	22
4	24	25	27	26
4	28	29	31	30
4	32	33	35	34
4	36	37	39	38
4	40	41	43	42
4	44	45	47	46
4	48	49	51	50
4	52	53	55	54
4	56	57	59	58
4	60	61	63	62
4	64	65	67	66
4	68	69	71	70
4	72	73	75	74
4	76	77	79	78
4	80	81	83	82
4	84	85	87	86
4	88	89	91	90
4	92	93	95	94
4	96	97	99	98
4	100	101	103	102
4	104	105	107	106
4	108	109	111	110
4	112	113	115	114
4	116	117	119	118
4	120	121	123	122
4	124	125	127	126
4	128	129	131	130
4	132	133	135	134
4	136	137	139	138
4	140	141	143	142
4	144	145	147	146
4	148	149	151	150
4	152	153	155	154
4	156	157	159	158
4	160	161	163	162
4	164	165	167	166
4	168	169	171	170
4	172	173	175	174
4	176	177	179	178
4	180	181	183	182
4	184	185	187	186
4	188	189	191	190
4	192	193	195	194
4	196	197	199	198
4	200	201	203	202
4	204	205	207	206
4	208	209	211	210
4	212	213	215	214
4	216	217	219	218
4	220	221	223	222
4	224	225	227	226
4	228	229	231	230
4	232	233	235	234
4	236	237	239	238
4	240	241	243	242
4	244	245	247	246
4	248	249	251	250
4	252	253	255	254

CELL_TYPES 64
 9 9 9 9 9 9 9 9 9 9 9 9 9 9 9 9 9 9 9 9 9 9 9 9 9 9 9 9 9 9 9 9 9 9 9 9 9 9 9 9 9 9 9 9 9 9 9 9 9 9 9 9 9 9 9 9 9 9 9 9 9 9 9 9
POINT_DATA 256
VECTORS velocity double
0 0 0
1.6198e-06 0 0
0 -1.61982e-06 0
0.325321 -0.325321 0
1.6198e-06 0 0
5.56462e-06 0 0
0.325321 -0.325324 0
1.11072 -0.460076 0
0 -1.61982e-06 0
0.325324 -0.325321 0
0 -5.56456e-06 0
0.460076 -1.11072 0
0.325324 -0.325324 0
1.11072 -0.460076 0
0.460076 -1.11072 0
1.5708 -1.5708 0
5.56462e-06 0 0
9.50938e-06 0 0
1.11072 -0.460076 0
1.89611 -0.325324 0
9.50938e-06 0 0
1.11433e-05 0 0
1.89611 -0.325321 0
2.22143 -1.61791e-06 0
1.11072 -0.460076 0
1.89613 -0.325324 0
1.5708 -1.5708 0
2.68152 -1.11072 0
1.89613 -0.325321 0
2.22145 -1.61791e-06 0
2.68152 -1.11072 0
3.14159 -5.56459e-06 0
0 -5.56456e-06 0
0.460076 -1.11072 0
0 -9.50933e-06 0
0.325324 -1.89611 0
0.460076 -1.11072 0
1.5708 -1.5708 0
0.325324 -1.89613 0
1.11072 -2.68152 0
0 -9.50933e-06 0
0.325321 -1.89611 0
0 -1.11433e-05 0
1.6179e-06 -2.22143 0
0.325321 -1.89613 0
1.11072 -2.68152 0
1.6179e-06 -2.22145 0
5.56459e-06 -3.14159 0
1.5708 -1.5708 0
2.68152 -1.11072 0
1.11072 -2.68152 0
1.89613 -1.89613 0
2.68152 -1.11072 0
3.14159 -5.56459e-06 0
1.89613 -1.89611 0
2.22145 -9.51129e-06 0
1.11072 -2.68152 0
1.89611 -1.89613 0
5.56459e-06 -3.14159 0
9.51128e-06 -2.22145 0
1.89611 -1.89611 0
2.22143 -9.51129e-06 0
9.51128e-06 -2.22143 0
1.11461e-05 -1.11461e-05 0
1.11433e-05 0 0
9.50938e-06 0 0
2.22143 1.61791e-06 0
1.89611 0.325321 0
9.50938e-06 0 0
5.56462e-06 0 0
1.89611 0.325324 0
1.11072 0.460076 0
2.22145 1.61791e-06 0
1.89613 0.325321 0
3.14159 5.56459e-06 0
2.68152 1.11072 0
1.89613 0.325324 0
1.11072 0.460076 0
2.68152 1.11072 0
1.5708 1.5708 0
5.56462e-06 0 0
1.6198e-06 0 0
1.11072 0.460076 0
0.325321 0.325324 0
1.6198e-06 0 0
0 0 0
0.325321 0.325321 0
0 1.61982e-06 0
1.11072 0.460076 0
0.325324 0.325324 0
1.5708 1.5708 0
0.460076 1.11072 0
0.325324 0.325321 0
0 1.61982e-06 0
0.460076 1.11072 0
0 5.56456e-06 0
3.14159 5.56459e-06 0
2.68152 1.11072 0
2.22145 9.51128e-06 0
1.89613 1.89611 0
2.68152 1.11072 0
1.5708 1.5708 0
1.89613 1.89613 0
1.11072 2.68152 0
2.22143 9.51128e-06 0
1.89611 1.89611 0
1.11461e-05 1.11461e-05 0
9.51128e-06 2.22143 0
1.89611 1.89613 0
1.11072 2.68152 0
9.51128e-06 2.22145 0
5.56459e-06 3.14159 0
1.5708 1.5708 0
0.460076 1.11072 0
1.11072 2.68152 0
0.325324 1.89613 0
0.460076 1.11072 0
0 5.56456e-06 0
0.325324 1.89611 0
0 9.50933e-06 0
1.11072 2.68152 0
0.325321 1.89613 0
5.56459e-06 3.14159 0
1.6179e-06 2.22145 0
0.325321 1.89611 0
0 9.50933e-06 0
1.6179e-06 2.22143 0
0 1.11433e-05 0
0 -1.11433e-05 0
-1.61791e-06 -2.22143 0
0 -9.50938e-06 0
-0.325321 -1.89611 0
-1.61791e-06 -2.22145 0
-5.5646e-06 -3.14159 0
-0.325321 -1.89613 0
-1.11072 -2.68152 0
0 -9.50938e-06 0
-0.325324 -1.89611 0
0 -5.56462e-06 0
-0.460076 -1.11072 0
-0.325324 -1.89613 0
-1.11072 -2.68152 0
-0.460076 -1.11072 0
-1.5708 -1.5708 0
-5.5646e-06 -3.14159 0
-9.51129e-06 -2.22145 0
-1.11072 -2.68152 0
-1.89611 -1.89613 0
-9.51129e-06 -2.22143 0
-1.11461e-05 -1.11461e-05 0
-1.89611 -1.89611 0
-2.22143 -9.51129e-06 0
-1.11072 -2.68152 0
-1.89613 -1.89613 0
-1.5708 -1.5708 0
-2.68152 -1.11072 0
-1.89613 -1.89611 0
-2.22145 -9.51129e-06 0
-2.68152 -1.11072 0
-3.14159 -5.56459e-06 0
0 -5.56462e-06 0
-0.460076 -1.11072 0
0 -1.6198e-06 0
-0.325324 -0.325321 0
-0.460076 -1.11072 0
-1.5708 -1.5708 0
-0.325324 -0.325324 0
-1.11072 -0.460076 0
0 -1.6198e-06 0
-0.325321 -0.325321 0
0 0 0
-1.61982e-06 0 0
-0.325321 -0.325324 0
-1.11072 -0.460076 0
-1.61982e-06 0 0
-5.56456e-06 0 0
-1.5708 -1.5708 0
-2.68152 -1.11072 0
-1.11072 -0.460076 0
-1.89613 -0.325324 0
-2.68152 -1.11072 0
-3.14159 -5.56459e-06 0
-1.89613 -0.325321 0
-2.22145 -1.61791e-06 0
-1.11072 -0.460076 0
-1.89611 -0.325324 0
-5.56456e-06 0 0
-9.50932e-06 0 0
-1.89611 -0.325321 0
-2.22143 -1.61791e-06 0
-9.50932e-06 0 0
-1.11433e-05 0 0
-1.11461e-05 1.11461e-05 0
-9.51129e-06 2.22143 0
-2.22143 9.51128e-06 0
-1.89611 1.89611 0
-9.51129e-06 2.22145 0
-5.5646e-06 3.14159 0
-1.89611 1.89613 0
-1.11072 2.68152 0
-2.22145 9.51128e-06 0
-1.89613 1.89611 0
-3.14159 5.56459e-06 0
-2.68152 1.11072 0
-1.89613 1.89613 0
-1.11072 2.68152 0
-2.68152 1.11072 0
-1.5708 1.5708 0
-5.5646e-06 3.14159 0
-1.61791e-06 2.22145 0
-1.11072 2.68152 0
-0.325321 1.89613 0
-1.61791e-06 2.22143 0
0 1.11433e-05 0
-0.325321 1.89611 0
0 9.50938e-06 0
-1.11072 2.68152 0
-0.325324 1.89613 0
-1.5708 1.5708 0
-0.460076 1.11072 0
-0.325324 1.89611 0
0 9.50938e-06 0
-0.460076 1.11072 0
0 5.56462e-06 0
-3.14159 5.56459e-06 0
-2.68152 1.11072 0
-2.22145 1.61791e-06 0
-1.89613 0.325321 0
-2.68152 1.11072 0
-1.5708 1.5708 0
-1.89613 0.325324 0
-1.11072 0.460076 0
-2.22143 1.61791e-06 0
-1.89611 0.325321 0
-1.11433e-05 0 0
-9.50932e-06 0 0
-1.89611 0.325324 0
-1.11072 0.460076 0
-9.50932e-06 0 0
-5.56456e-06 0 0
-1.5708 1.5708 0
-0.460076 1.11072 0
-1.11072 0.460076 0
-0.325324 0.325324 0
-0.460076 1.11072 0
0 5.56462e-06 0
-0.325324 0.325321 0
0 1.6198e-06 0
-1.11072 0.460076 0
-0.325321 0.325324 0
-5.56456e-06 0 0
-1.61982e-06 0 0
-0.325321 0.325321 0
0 1.6198e-06 0
-1.61982e-06 0 0
0 0 0
SCALARS pressure double 1
LOOKUP_TABLE default
4.7497e-07 4.92535e-05 0.382634 0.353553 4.1267e-05 6.30564e-05 0.353497 0.270559 0.382643 0.35361 0.707044 0.653321 0.353554 0.270638 0.653241 0.5 6.30465e-05 4.09391e-05 0.270558 0.14639 4.82194e-05 -5.15778e-06 0.146447 -3.99668e-05 0.270638 0.146447 0.5 0.270559 0.146503 -3.94704e-05 0.270637 -5.58027e-05 0.707044 0.653321 0.923839 0.853609 0.653242 0.5 0.853553 0.653321 0.923831 0.853553 1.00001 0.92392 0.853497 0.653242 0.923919 0.707163 0.5 0.270559 0.653321 0.353554 0.270638 -5.58048e-05 0.353609 -3.93315e-05 0.653242 0.353498 0.707162 0.382723 0.353553 -3.93315e-05 0.382723 3.03438e-07 5.1578e-06 -4.82193e-05 3.99668e-05 -0.146447 -4.09391e-05 -6.30465e-05 -0.14639 -0.270558 3.94704e-05 -0.146503 5.58027e-05 -0.270637 -0.146447 -0.270638 -0.270559 -0.5 -6.30565e-05 -4.1267e-05 -0.270559 -0.353497 -4.92535e-05 -4.74926e-07 -0.353553 -0.382634 -0.270638 -0.353554 -0.5 -0.653241 -0.35361 -0.382643 -0.653321 -0.707044 5.58048e-05 -0.270638 3.93315e-05 -0.353609 -0.270559 -0.5 -0.353554 -0.653321 3.93315e-05 -0.353553 -3.03441e-07 -0.382723 -0.353498 -0.653242 -0.382723 -0.707162 -0.5 -0.653242 -0.653321 -0.853553 -0.653321 -0.707044 -0.853609 -0.923839 -0.653242 -0.853497 -0.707163 -0.923919 -0.853553 -0.923831 -0.92392 -1.00001 0.999995 0.923839 0.923928 0.853554 0.92384 0.707051 0.853609 0.653321 0.92392 0.853497 0.70717 0.653242 0.853553 0.653242 0.653321 0.5 0.70705 0.382644 0.653321 0.35361 0.382643 3.03438e-07 0.353553 3.98921e-05 0.653242 0.353554 0.5 0.270638 0.353497 3.98922e-05 0.270558 5.6234e-05 0.707169 0.653242 0.382725 0.353498 0.653321 0.5 0.353554 0.270559 0.382732 0.353553 4.76714e-07 -4.87723e-05 0.353609 0.270637 -4.07995e-05 -6.26713e-05 0.5 0.270638 0.270558 0.146447 0.270558 5.62319e-05 0.146391 3.97039e-05 0.270637 0.146503 -6.27071e-05 -4.06644e-05 0.146446 4.02008e-05 -4.80066e-05 5.18165e-06 -3.03438e-07 -0.382643 -3.98922e-05 -0.353553 -0.382644 -0.70705 -0.35361 -0.653321 -3.98922e-05 -0.353497 -5.6234e-05 -0.270558 -0.353554 -0.653242 -0.270638 -0.5 -0.707051 -0.92384 -0.653321 -0.853609 -0.923839 -0.999995 -0.853554 -0.923928 -0.653242 -0.853553 -0.5 -0.653321 -0.853497 -0.92392 -0.653242 -0.70717 -5.62319e-05 -0.270558 -3.97039e-05 -0.146391 -0.270638 -0.5 -0.146447 -0.270558 -4.02008e-05 -0.146446 -5.18166e-06 4.80066e-05 -0.146503 -0.270637 4.06643e-05 6.27071e-05 -0.5 -0.653321 -0.270559 -0.353554 -0.653242 -0.707169 -0.353498 -0.382725 -0.270637 -0.353609 6.26713e-05 4.07996e-05 -0.353553 -0.382732 4.87723e-05 -4.74003e-07 
SCALARS global_div_diff double 1
LOOKUP_TABLE default
2.29486e-10 2.29486e-10 2.29486e-10 2.29486e-10 1.34874e-10 1.34874e-10 1.34874e-10 1.34874e-10 1.32992e-10 1.32992e-10 1.32992e-10 1.32992e-10 7.8771e-12 7.8771e-12 7.8771e-12 7.8771e-12 1.06855e-10 1.06855e-10 1.06855e-10 1.06855e-10 3.48584e-11 3.48584e-11 3.48584e-11 3.48584e-11 6.1978e-12 6.1978e-12 6.1978e-12 6.1978e-12 5.09872e-12 5.09872e-12 5.09872e-12 5.09872e-12 1.01998e-10 1.01998e-10 1.01998e-10 1.01998e-10 4.01022e-12 4.01022e-12 4.01022e-12 4.01022e-12 2.91617e-11 2.91617e-11 2.91617e-11 2.91617e-11 1.88821e-12 1.88821e-12 1.88821e-12 1.88821e-12 2.20347e-12 2.20347e-12 2.20347e-12 2.20347e-12 1.45384e-12 1.45384e-12 1.45384e-12 1.45384e-12 1.83669e-12 1.83669e-12 1.83669e-12 1.83669e-12 8.4613e-13 8.4613e-13 8.4613e-13 8.4613e-13 3.45607e-11 3.45607e-11 3.45607e-11 3.45607e-11 1.0676e-10 1.0676e-10 1.0676e-10 1.0676e-10 4.82508e-12 4.82508e-12 4.82508e-12 4.82508e-12 6.25455e-12 6.25455e-12 6.25455e-12 6.25455e-12 1.3477e-10 1.3477e-10 1.3477e-10 1.3477e-10 2.29125e-10 2.29125e-10 2.29125e-10 2.29125e-10 7.54337e-12 7.54337e-12 7.54337e-12 7.54337e-12 1.32982e-10 1.32982e-10 1.32982e-10 1.32982e-10 1.64975e-12 1.64975e-12 1.64975e-12 1.64975e-12 2.51268e-12 2.51268e-12 2.51268e-12 2.51268e-12 1.34428e-12 1.34428e-12 1.34428e-12 1.34428e-12 2.17945e-12 2.17945e-12 2.17945e-12 2.17945e-12 4.27598e-12 4.27598e-12 4.27598e-12 4.27598e-12 1.01991e-10 1.01991e-10 1.01991e-10 1.01991e-10 1.93946e-12 1.93946e-12 1.93946e-12 1.93946e-12 2.9077e-11 2.9077e-11 2.9077e-11 2.9077e-11 2.91007e-11 2.91007e-11 2.91007e-11 2.91007e-11 1.94411e-12 1.94411e-12 1.94411e-12 1.94411e-12 1.01991e-10 1.01991e-10 1.01991e-10 1.01991e-10 4.17953e-12 4.17953e-12 4.17953e-12 4.17953e-12 1.84906e-12 1.84906e-12 1.84906e-12 1.84906e-12 7.07636e-13 7.07636e-13 7.07636e-13 7.07636e-13 2.09096e-12 2.09096e-12 2.09096e-12 2.09096e-12 1.14698e-12 1.14698e-12 1.14698e-12 1.14698e-12 1.3299e-10 1.3299e-10 1.3299e-10 1.3299e-10 7.69949e-12 7.69949e-12 7.69949e-12 7.69949e-12 2.30442e-10 2.30442e-10 2.30442e-10 2.30442e-10 1.34817e-10 1.34817e-10 1.34817e-10 1.34817e-10 6.05355e-12 6.05355e-12 6.05355e-12 6.05355e-12 4.68819e-12 4.68819e-12 4.68819e-12 4.68819e-12 1.06762e-10 1.06762e-10 1.06762e-10 1.06762e-10 3.46407e-11 3.46407e-11 3.46407e-11 3.46407e-11 1.48879e-12 1.48879e-12 1.48879e-12 1.48879e-12 2.24868e-12 2.24868e-12 2.24868e-12 2.24868e-12 1.81096e-12 1.81096e-12 1.81096e-12 1.81096e-12 2.30281e-12 2.30281e-12 2.30281e-12 2.30281e-12 1.89716e-12 1.89716e-12 1.89716e-12 1.89716e-12 2.91595e-11 2.91595e-11 2.91595e-11 2.91595e-11 3.95277e-12 3.95277e-12 3.95277e-12 3.95277e-12 1.01912e-10 1.01912e-10 1.01912e-10 1.01912e-10 4.98059e-12 4.98059e-12 4.98059e-12 4.98059e-12 6.04442e-12 6.04442e-12 6.04442e-12 6.04442e-12 3.45856e-11 3.45856e-11 3.45856e-11 3.45856e-11 1.06693e-10 1.06693e-10 1.06693e-10 1.06693e-10 8.20242e-12 8.20242e-12 8.20242e-12 8.20242e-12 1.33041e-10 1.33041e-10 1.33041e-10 1.33041e-10 1.34977e-10 1.34977e-10 1.34977e-10 1.34977e-10 2.29045e-10 2.29045e-10 2.29045e-10 2.29045e-10 
SCALARS cell_div_diff double 1
LOOKUP_TABLE default
2.29486e-10 2.29486e-10 2.29486e-10 2.29486e-10 1.34874e-10 1.34874e-10 1.34874e-10 1.34874e-10 1.32992e-10 1.32992e-10 1.32992e-10 1.32992e-10 7.87741e-12 7.87741e-12 7.87741e-12 7.87741e-12 1.06854e-10 1.06854e-10 1.06854e-10 1.06854e-10 3.48581e-11 3.48581e-11 3.48581e-11 3.48581e-11 6.1974e-12 6.1974e-12 6.1974e-12 6.1974e-12 5.09811e-12 5.09811e-12 5.09811e-12 5.09811e-12 1.01997e-10 1.01997e-10 1.01997e-10 1.01997e-10 4.01078e-12 4.01078e-12 4.01078e-12 4.01078e-12 2.91615e-11 2.91615e-11 2.91615e-11 2.91615e-11 1.88998e-12 1.88998e-12 1.88998e-12 1.88998e-12 2.20265e-12 2.20265e-12 2.20265e-12 2.20265e-12 1.45317e-12 1.45317e-12 1.45317e-12 1.45317e-12 1.83515e-12 1.83515e-12 1.83515e-12 1.83515e-12 8.45541e-13 8.45541e-13 8.45541e-13 8.45541e-13 3.45606e-11 3.45606e-11 3.45606e-11 3.45606e-11 1.0676e-10 1.0676e-10 1.0676e-10 1.0676e-10 4.82441e-12 4.82441e-12 4.82441e-12 4.82441e-12 6.25317e-12 6.25317e-12 6.25317e-12 6.25317e-12 1.3477e-10 1.3477e-10 1.3477e-10 1.3477e-10 2.29125e-10 2.29125e-10 2.29125e-10 2.29125e-10 7.54336e-12 7.54336e-12 7.54336e-12 7.54336e-12 1.32982e-10 1.32982e-10 1.32982e-10 1.32982e-10 1.64747e-12 1.64747e-12 1.64747e-12 1.64747e-12 2.51132e-12 2.51132e-12 2.51132e-12 2.51132e-12 1.34299e-12 1.34299e-12 1.34299e-12 1.34299e-12 2.17831e-12 2.17831e-12 2.17831e-12 2.17831e-12 4.2763e-12 4.2763e-12 4.2763e-12 4.2763e-12 1.01992e-10 1.01992e-10 1.01992e-10 1.01992e-10 1.93853e-12 1.93853e-12 1.93853e-12 1.93853e-12 2.90769e-11 2.90769e-11 2.90769e-11 2.90769e-11 2.91009e-11 2.91009e-11 2.91009e-11 2.91009e-11 1.94228e-12 1.94228e-12 1.94228e-12 1.94228e-12 1.01992e-10 1.01992e-10 1.01992e-10 1.01992e-10 4.1788e-12 4.1788e-12 4.1788e-12 4.1788e-12 1.84764e-12 1.84764e-12 1.84764e-12 1.84764e-12 7.07407e-13 7.07407e-13 7.07407e-13 7.07407e-13 2.09054e-12 2.09054e-12 2.09054e-12 2.09054e-12 1.14591e-12 1.14591e-12 1.14591e-12 1.14591e-12 1.3299e-10 1.3299e-10 1.3299e-10 1.3299e-10 7.69966e-12 7.69966e-12 7.69966e-12 7.69966e-12 2.30442e-10 2.30442e-10 2.30442e-10 2.30442e-10 1.34817e-10 1.34817e-10 1.34817e-10 1.34817e-10 6.05408e-12 6.05408e-12 6.05408e-12 6.05408e-12 4.68652e-12 4.68652e-12 4.68652e-12 4.68652e-12 1.06762e-10 1.06762e-10 1.06762e-10 1.06762e-10 3.46405e-11 3.46405e-11 3.46405e-11 3.46405e-11 1.48863e-12 1.48863e-12 1.48863e-12 1.48863e-12 2.24763e-12 2.24763e-12 2.24763e-12 2.24763e-12 1.81028e-12 1.81028e-12 1.81028e-12 1.81028e-12 2.30198e-12 2.30198e-12 2.30198e-12 2.30198e-12 1.89606e-12 1.89606e-12 1.89606e-12 1.89606e-12 2.91593e-11 2.91593e-11 2.91593e-11 2.91593e-11 3.9524e-12 3.9524e-12 3.9524e-12 3.9524e-12 1.01912e-10 1.01912e-10 1.01912e-10 1.01912e-10 4.98071e-12 4.98071e-12 4.98071e-12 4.98071e-12 6.0442e-12 6.0442e-12 6.0442e-12 6.0442e-12 3.45857e-11 3.45857e-11 3.45857e-11 3.45857e-11 1.06693e-10 1.06693e-10 1.06693e-10 1.06693e-10 8.20227e-12 8.20227e-12 8.20227e-12 8.20227e-12 1.33041e-10 1.33041e-10 1.33041e-10 1.33041e-10 1.34977e-10 1.34977e-10 1.34977e-10 1.34977e-10 2.29045e-10 2.29045e-10 2.29045e-10 2.29045e-10 
SCALARS global_l2_diff double 1
LOOKUP_TABLE default
1.38268e-07 1.38268e-07 1.38268e-07 1.38268e-07 4.67752e-07 4.67752e-07 4.67752e-07 4.67752e-07 4.67752e-07 4.67752e-07 4.67752e-07 4.67752e-07 2.79081e-07 2.79081e-07 2.79081e-07 2.79081e-07 9.73359e-07 9.73359e-07 9.73359e-07 9.73359e-07 1.33351e-06 1.33351e-06 1.33351e-06 1.33351e-06 4.56835e-07 4.56835e-07 4.56835e-07 4.56835e-07 7.3114e-07 7.3114e-07 7.3114e-07 7.3114e-07 9.73359e-07 9.73359e-07 9.73359e-07 9.73359e-07 4.56835e-07 4.56835e-07 4.56835e-07 4.56835e-07 1.33351e-06 1.33351e-06 1.33351e-06 1.33351e-06 7.3114e-07 7.3114e-07 7.3114e-07 7.3114e-07 5.82674e-07 5.82674e-07 5.82674e-07 5.82674e-07 1.12393e-06 1.12393e-06 1.12393e-06 1.12393e-06 1.12393e-06 1.12393e-06 1.12393e-06 1.12393e-06 1.88081e-06 1.88081e-06 1.88081e-06 1.88081e-06 1.33351e-06 1.33351e-06 1.33351e-06 1.33351e-06 9.73359e-07 9.73359e-07 9.73359e-07 9.73359e-07 7.3114e-07 7.3114e-07 7.3114e-07 7.3114e-07 4.56835e-07 4.56835e-07 4.56835e-07 4.56835e-07 4.67752e-07 4.67752e-07 4.67752e-07 4.67752e-07 1.38268e-07 1.38268e-07 1.38268e-07 1.38268e-07 2.79081e-07 2.79081e-07 2.79081e-07 2.79081e-07 4.67752e-07 4.67752e-07 4.67752e-07 4.67752e-07 1.12393e-06 1.12393e-06 1.12393e-06 1.12393e-06 5.82674e-07 5.82674e-07 5.82674e-07 5.82674e-07 1.88081e-06 1.88081e-06 1.88081e-06 1.88081e-06 1.12393e-06 1.12393e-06 1.12393e-06 1.12393e-06 4.56835e-07 4.56835e-07 4.56835e-07 4.56835e-07 9.73359e-07 9.73359e-07 9.73359e-07 9.73359e-07 7.3114e-07 7.3114e-07 7.3114e-07 7.3114e-07 1.33351e-06 1.33351e-06 1.33351e-06 1.33351e-06 1.33351e-06 1.33351e-06 1.33351e-06 1.33351e-06 7.3114e-07 7.3114e-07 7.3114e-07 7.3114e-07 9.73359e-07 9.73359e-07 9.73359e-07 9.73359e-07 4.56835e-07 4.56835e-07 4.56835e-07 4.56835e-07 1.12393e-06 1.12393e-06 1.12393e-06 1.12393e-06 1.88081e-06 1.88081e-06 1.88081e-06 1.88081e-06 5.82674e-07 5.82674e-07 5.82674e-07 5.82674e-07 1.12393e-06 1.12393e-06 1.12393e-06 1.12393e-06 4.67752e-07 4.67752e-07 4.67752e-07 4.67752e-07 2.79081e-07 2.79081e-07 2.79081e-07 2.79081e-07 1.38268e-07 1.38268e-07 1.38268e-07 1.38268e-07 4.67752e-07 4.67752e-07 4.67752e-07 4.67752e-07 4.56835e-07 4.56835e-07 4.56835e-07 4.56835e-07 7.3114e-07 7.3114e-07 7.3114e-07 7.3114e-07 9.73359e-07 9.73359e-07 9.73359e-07 9.73359e-07 1.33351e-06 1.33351e-06 1.33351e-06 1.33351e-06 1.88081e-06 1.88081e-06 1.88081e-06 1.88081e-06 1.12393e-06 1.12393e-06 1.12393e-06 1.12393e-06 1.12393e-06 1.12393e-06 1.12393e-06 1.12393e-06 5.82674e-07 5.82674e-07 5.82674e-07 5.82674e-07 7.3114e-07 7.3114e-07 7.3114e-07 7.3114e-07 1.33351e-06 1.33351e-06 1.33351e-06 1.33351e-06 4.56835e-07 4.56835e-07 4.56835e-07 4.56835e-07 9.73359e-07 9.73359e-07 9.73359e-07 9.73359e-07 7.3114e-07 7.3114e-07 7.3114e-07 7.3114e-07 4.56835e-07 4.56835e-07 4.56835e-07 4.56835e-07 1.33351e-06 1.33351e-06 1.33351e-06 1.33351e-06 9.73359e-07 9.73359e-07 9.73359e-07 9.73359e-07 2.79081e-07 2.79081e-07 2.79081e-07 2.79081e-07 4.67752e-07 4.67752e-07 4.67752e-07 4.67752e-07 4.67752e-07 4.67752e-07 4.67752e-07 4.67752e-07 1.38268e-07 1.38268e-07 1.38268e-07 1.38268e-07 
SCALARS global_h1_diff double 1
LOOKUP_TABLE default
1.70311e-05 1.70311e-05 1.70311e-05 1.70311e-05 5.90472e-05 5.90472e-05 5.90472e-05 5.90472e-05 5.90472e-05 5.90472e-05 5.90472e-05 5.90472e-05 3.64421e-05 3.64421e-05 3.64421e-05 3.64421e-05 0.000123464 0.000123464 0.000123464 0.000123464 0.000169332 0.000169332 0.000169332 0.000169332 5.98823e-05 5.98823e-05 5.98823e-05 5.98823e-05 9.45392e-05 9.45392e-05 9.45392e-05 9.45392e-05 0.000123464 0.000123464 0.000123464 0.000123464 5.98823e-05 5.98823e-05 5.98823e-05 5.98823e-05 0.000169332 0.000169332 0.000169332 0.000169332 9.45392e-05 9.45392e-05 9.45392e-05 9.45392e-05 7.64445e-05 7.64445e-05 7.64445e-05 7.64445e-05 0.000143856 0.000143856 0.000143856 0.000143856 0.000143856 0.000143856 0.000143856 0.000143856 0.000238865 0.000238865 0.000238865 0.000238865 0.000169332 0.000169332 0.000169332 0.000169332 0.000123464 0.000123464 0.000123464 0.000123464 9.45392e-05 9.45392e-05 9.45392e-05 9.45392e-05 5.98823e-05 5.98823e-05 5.98823e-05 5.98823e-05 5.90472e-05 5.90472e-05 5.90472e-05 5.90472e-05 1.70311e-05 1.70311e-05 1.70311e-05 1.70311e-05 3.64421e-05 3.64421e-05 3.64421e-05 3.64421e-05 5.90472e-05 5.90472e-05 5.90472e-05 5.90472e-05 0.000143856 0.000143856 0.000143856 0.000143856 7.64445e-05 7.64445e-05 7.64445e-05 7.64445e-05 0.000238865 0.000238865 0.000238865 0.000238865 0.000143856 0.000143856 0.000143856 0.000143856 5.98823e-05 5.98823e-05 5.98823e-05 5.98823e-05 0.000123464 0.000123464 0.000123464 0.000123464 9.45392e-05 9.45392e-05 9.45392e-05 9.45392e-05 0.000169332 0.000169332 0.000169332 0.000169332 0.000169332 0.000169332 0.000169332 0.000169332 9.45392e-05 9.45392e-05 9.45392e-05 9.45392e-05 0.000123464 0.000123464 0.000123464 0.000123464 5.98823e-05 5.98823e-05 5.98823e-05 5.98823e-05 0.000143856 0.000143856 0.000143856 0.000143856 0.000238865 0.000238865 0.000238865 0.000238865 7.64445e-05 7.64445e-05 7.64445e-05 7.64445e-05 0.000143856 0.000143856 0.000143856 0.000143856 5.90472e-05 5.90472e-05 5.90472e-05 5.90472e-05 3.64421e-05 3.64421e-05 3.64421e-05 3.64421e-05 1.70311e-05 1.70311e-05 1.70311e-05 1.70311e-05 5.90472e-05 5.90472e-05 5.90472e-05 5.90472e-05 5.98823e-05 5.98823e-05 5.98823e-05 5.98823e-05 9.45392e-05 9.45392e-05 9.45392e-05 9.45392e-05 0.000123464 0.000123464 0.000123464 0.000123464 0.000169332 0.000169332 0.000169332 0.000169332 0.000238865 0.000238865 0.000238865 0.000238865 0.000143856 0.000143856 0.000143856 0.000143856 0.000143856 0.000143856 0.000143856 0.000143856 7.64445e-05 7.64445e-05 7.64445e-05 7.64445e-05 9.45392e-05 9.45392e-05 9.45392e-05 9.45392e-05 0.000169332 0.000169332 0.000169332 0.000169332 5.98823e-05 5.98823e-05 5.98823e-05 5.98823e-05 0.000123464 0.000123464 0.000123464 0.000123464 9.45392e-05 9.45392e-05 9.45392e-05 9.45392e-05 5.98823e-05 5.98823e-05 5.98823e-05 5.98823e-05 0.000169332 0.000169332 0.000169332 0.000169332 0.000123464 0.000123464 0.000123464 0.000123464 3.64421e-05 3.64421e-05 3.64421e-05 3.64421e-05 5.90472e-05 5.90472e-05 5.90472e-05 5.90472e-05 5.90472e-05 5.90472e-05 5.90472e-05 5.90472e-05 1.70311e-05 1.70311e-05 1.70311e-05 1.70311e-05 
