# vtk DataFile Version 3.0
#This file was generated by the deal.II library on 2017/9/21 at 11:37:45
ASCII
DATASET UNSTRUCTURED_GRID

POINTS 4096 double
0 0 0
0.03125 0 0
0 0.03125 0
0.03125 0.03125 0
0.03125 0 0
0.0625 0 0
0.03125 0.03125 0
0.0625 0.03125 0
0 0.03125 0
0.03125 0.03125 0
0 0.0625 0
0.03125 0.0625 0
0.03125 0.03125 0
0.0625 0.03125 0
0.03125 0.0625 0
0.0625 0.0625 0
0.0625 0 0
0.09375 0 0
0.0625 0.03125 0
0.09375 0.03125 0
0.09375 0 0
0.125 0 0
0.09375 0.03125 0
0.125 0.03125 0
0.0625 0.03125 0
0.09375 0.03125 0
0.0625 0.0625 0
0.09375 0.0625 0
0.09375 0.03125 0
0.125 0.03125 0
0.09375 0.0625 0
0.125 0.0625 0
0 0.0625 0
0.03125 0.0625 0
0 0.09375 0
0.03125 0.09375 0
0.03125 0.0625 0
0.0625 0.0625 0
0.03125 0.09375 0
0.0625 0.09375 0
0 0.09375 0
0.03125 0.09375 0
0 0.125 0
0.03125 0.125 0
0.03125 0.09375 0
0.0625 0.09375 0
0.03125 0.125 0
0.0625 0.125 0
0.0625 0.0625 0
0.09375 0.0625 0
0.0625 0.09375 0
0.09375 0.09375 0
0.09375 0.0625 0
0.125 0.0625 0
0.09375 0.09375 0
0.125 0.09375 0
0.0625 0.09375 0
0.09375 0.09375 0
0.0625 0.125 0
0.09375 0.125 0
0.09375 0.09375 0
0.125 0.09375 0
0.09375 0.125 0
0.125 0.125 0
0.125 0 0
0.15625 0 0
0.125 0.03125 0
0.15625 0.03125 0
0.15625 0 0
0.1875 0 0
0.15625 0.03125 0
0.1875 0.03125 0
0.125 0.03125 0
0.15625 0.03125 0
0.125 0.0625 0
0.15625 0.0625 0
0.15625 0.03125 0
0.1875 0.03125 0
0.15625 0.0625 0
0.1875 0.0625 0
0.1875 0 0
0.21875 0 0
0.1875 0.03125 0
0.21875 0.03125 0
0.21875 0 0
0.25 0 0
0.21875 0.03125 0
0.25 0.03125 0
0.1875 0.03125 0
0.21875 0.03125 0
0.1875 0.0625 0
0.21875 0.0625 0
0.21875 0.03125 0
0.25 0.03125 0
0.21875 0.0625 0
0.25 0.0625 0
0.125 0.0625 0
0.15625 0.0625 0
0.125 0.09375 0
0.15625 0.09375 0
0.15625 0.0625 0
0.1875 0.0625 0
0.15625 0.09375 0
0.1875 0.09375 0
0.125 0.09375 0
0.15625 0.09375 0
0.125 0.125 0
0.15625 0.125 0
0.15625 0.09375 0
0.1875 0.09375 0
0.15625 0.125 0
0.1875 0.125 0
0.1875 0.0625 0
0.21875 0.0625 0
0.1875 0.09375 0
0.21875 0.09375 0
0.21875 0.0625 0
0.25 0.0625 0
0.21875 0.09375 0
0.25 0.09375 0
0.1875 0.09375 0
0.21875 0.09375 0
0.1875 0.125 0
0.21875 0.125 0
0.21875 0.09375 0
0.25 0.09375 0
0.21875 0.125 0
0.25 0.125 0
0 0.125 0
0.03125 0.125 0
0 0.15625 0
0.03125 0.15625 0
0.03125 0.125 0
0.0625 0.125 0
0.03125 0.15625 0
0.0625 0.15625 0
0 0.15625 0
0.03125 0.15625 0
0 0.1875 0
0.03125 0.1875 0
0.03125 0.15625 0
0.0625 0.15625 0
0.03125 0.1875 0
0.0625 0.1875 0
0.0625 0.125 0
0.09375 0.125 0
0.0625 0.15625 0
0.09375 0.15625 0
0.09375 0.125 0
0.125 0.125 0
0.09375 0.15625 0
0.125 0.15625 0
0.0625 0.15625 0
0.09375 0.15625 0
0.0625 0.1875 0
0.09375 0.1875 0
0.09375 0.15625 0
0.125 0.15625 0
0.09375 0.1875 0
0.125 0.1875 0
0 0.1875 0
0.03125 0.1875 0
0 0.21875 0
0.03125 0.21875 0
0.03125 0.1875 0
0.0625 0.1875 0
0.03125 0.21875 0
0.0625 0.21875 0
0 0.21875 0
0.03125 0.21875 0
0 0.25 0
0.03125 0.25 0
0.03125 0.21875 0
0.0625 0.21875 0
0.03125 0.25 0
0.0625 0.25 0
0.0625 0.1875 0
0.09375 0.1875 0
0.0625 0.21875 0
0.09375 0.21875 0
0.09375 0.1875 0
0.125 0.1875 0
0.09375 0.21875 0
0.125 0.21875 0
0.0625 0.21875 0
0.09375 0.21875 0
0.0625 0.25 0
0.09375 0.25 0
0.09375 0.21875 0
0.125 0.21875 0
0.09375 0.25 0
0.125 0.25 0
0.125 0.125 0
0.15625 0.125 0
0.125 0.15625 0
0.15625 0.15625 0
0.15625 0.125 0
0.1875 0.125 0
0.15625 0.15625 0
0.1875 0.15625 0
0.125 0.15625 0
0.15625 0.15625 0
0.125 0.1875 0
0.15625 0.1875 0
0.15625 0.15625 0
0.1875 0.15625 0
0.15625 0.1875 0
0.1875 0.1875 0
0.1875 0.125 0
0.21875 0.125 0
0.1875 0.15625 0
0.21875 0.15625 0
0.21875 0.125 0
0.25 0.125 0
0.21875 0.15625 0
0.25 0.15625 0
0.1875 0.15625 0
0.21875 0.15625 0
0.1875 0.1875 0
0.21875 0.1875 0
0.21875 0.15625 0
0.25 0.15625 0
0.21875 0.1875 0
0.25 0.1875 0
0.125 0.1875 0
0.15625 0.1875 0
0.125 0.21875 0
0.15625 0.21875 0
0.15625 0.1875 0
0.1875 0.1875 0
0.15625 0.21875 0
0.1875 0.21875 0
0.125 0.21875 0
0.15625 0.21875 0
0.125 0.25 0
0.15625 0.25 0
0.15625 0.21875 0
0.1875 0.21875 0
0.15625 0.25 0
0.1875 0.25 0
0.1875 0.1875 0
0.21875 0.1875 0
0.1875 0.21875 0
0.21875 0.21875 0
0.21875 0.1875 0
0.25 0.1875 0
0.21875 0.21875 0
0.25 0.21875 0
0.1875 0.21875 0
0.21875 0.21875 0
0.1875 0.25 0
0.21875 0.25 0
0.21875 0.21875 0
0.25 0.21875 0
0.21875 0.25 0
0.25 0.25 0
0.25 0 0
0.28125 0 0
0.25 0.03125 0
0.28125 0.03125 0
0.28125 0 0
0.3125 0 0
0.28125 0.03125 0
0.3125 0.03125 0
0.25 0.03125 0
0.28125 0.03125 0
0.25 0.0625 0
0.28125 0.0625 0
0.28125 0.03125 0
0.3125 0.03125 0
0.28125 0.0625 0
0.3125 0.0625 0
0.3125 0 0
0.34375 0 0
0.3125 0.03125 0
0.34375 0.03125 0
0.34375 0 0
0.375 0 0
0.34375 0.03125 0
0.375 0.03125 0
0.3125 0.03125 0
0.34375 0.03125 0
0.3125 0.0625 0
0.34375 0.0625 0
0.34375 0.03125 0
0.375 0.03125 0
0.34375 0.0625 0
0.375 0.0625 0
0.25 0.0625 0
0.28125 0.0625 0
0.25 0.09375 0
0.28125 0.09375 0
0.28125 0.0625 0
0.3125 0.0625 0
0.28125 0.09375 0
0.3125 0.09375 0
0.25 0.09375 0
0.28125 0.09375 0
0.25 0.125 0
0.28125 0.125 0
0.28125 0.09375 0
0.3125 0.09375 0
0.28125 0.125 0
0.3125 0.125 0
0.3125 0.0625 0
0.34375 0.0625 0
0.3125 0.09375 0
0.34375 0.09375 0
0.34375 0.0625 0
0.375 0.0625 0
0.34375 0.09375 0
0.375 0.09375 0
0.3125 0.09375 0
0.34375 0.09375 0
0.3125 0.125 0
0.34375 0.125 0
0.34375 0.09375 0
0.375 0.09375 0
0.34375 0.125 0
0.375 0.125 0
0.375 0 0
0.40625 0 0
0.375 0.03125 0
0.40625 0.03125 0
0.40625 0 0
0.4375 0 0
0.40625 0.03125 0
0.4375 0.03125 0
0.375 0.03125 0
0.40625 0.03125 0
0.375 0.0625 0
0.40625 0.0625 0
0.40625 0.03125 0
0.4375 0.03125 0
0.40625 0.0625 0
0.4375 0.0625 0
0.4375 0 0
0.46875 0 0
0.4375 0.03125 0
0.46875 0.03125 0
0.46875 0 0
0.5 0 0
0.46875 0.03125 0
0.5 0.03125 0
0.4375 0.03125 0
0.46875 0.03125 0
0.4375 0.0625 0
0.46875 0.0625 0
0.46875 0.03125 0
0.5 0.03125 0
0.46875 0.0625 0
0.5 0.0625 0
0.375 0.0625 0
0.40625 0.0625 0
0.375 0.09375 0
0.40625 0.09375 0
0.40625 0.0625 0
0.4375 0.0625 0
0.40625 0.09375 0
0.4375 0.09375 0
0.375 0.09375 0
0.40625 0.09375 0
0.375 0.125 0
0.40625 0.125 0
0.40625 0.09375 0
0.4375 0.09375 0
0.40625 0.125 0
0.4375 0.125 0
0.4375 0.0625 0
0.46875 0.0625 0
0.4375 0.09375 0
0.46875 0.09375 0
0.46875 0.0625 0
0.5 0.0625 0
0.46875 0.09375 0
0.5 0.09375 0
0.4375 0.09375 0
0.46875 0.09375 0
0.4375 0.125 0
0.46875 0.125 0
0.46875 0.09375 0
0.5 0.09375 0
0.46875 0.125 0
0.5 0.125 0
0.25 0.125 0
0.28125 0.125 0
0.25 0.15625 0
0.28125 0.15625 0
0.28125 0.125 0
0.3125 0.125 0
0.28125 0.15625 0
0.3125 0.15625 0
0.25 0.15625 0
0.28125 0.15625 0
0.25 0.1875 0
0.28125 0.1875 0
0.28125 0.15625 0
0.3125 0.15625 0
0.28125 0.1875 0
0.3125 0.1875 0
0.3125 0.125 0
0.34375 0.125 0
0.3125 0.15625 0
0.34375 0.15625 0
0.34375 0.125 0
0.375 0.125 0
0.34375 0.15625 0
0.375 0.15625 0
0.3125 0.15625 0
0.34375 0.15625 0
0.3125 0.1875 0
0.34375 0.1875 0
0.34375 0.15625 0
0.375 0.15625 0
0.34375 0.1875 0
0.375 0.1875 0
0.25 0.1875 0
0.28125 0.1875 0
0.25 0.21875 0
0.28125 0.21875 0
0.28125 0.1875 0
0.3125 0.1875 0
0.28125 0.21875 0
0.3125 0.21875 0
0.25 0.21875 0
0.28125 0.21875 0
0.25 0.25 0
0.28125 0.25 0
0.28125 0.21875 0
0.3125 0.21875 0
0.28125 0.25 0
0.3125 0.25 0
0.3125 0.1875 0
0.34375 0.1875 0
0.3125 0.21875 0
0.34375 0.21875 0
0.34375 0.1875 0
0.375 0.1875 0
0.34375 0.21875 0
0.375 0.21875 0
0.3125 0.21875 0
0.34375 0.21875 0
0.3125 0.25 0
0.34375 0.25 0
0.34375 0.21875 0
0.375 0.21875 0
0.34375 0.25 0
0.375 0.25 0
0.375 0.125 0
0.40625 0.125 0
0.375 0.15625 0
0.40625 0.15625 0
0.40625 0.125 0
0.4375 0.125 0
0.40625 0.15625 0
0.4375 0.15625 0
0.375 0.15625 0
0.40625 0.15625 0
0.375 0.1875 0
0.40625 0.1875 0
0.40625 0.15625 0
0.4375 0.15625 0
0.40625 0.1875 0
0.4375 0.1875 0
0.4375 0.125 0
0.46875 0.125 0
0.4375 0.15625 0
0.46875 0.15625 0
0.46875 0.125 0
0.5 0.125 0
0.46875 0.15625 0
0.5 0.15625 0
0.4375 0.15625 0
0.46875 0.15625 0
0.4375 0.1875 0
0.46875 0.1875 0
0.46875 0.15625 0
0.5 0.15625 0
0.46875 0.1875 0
0.5 0.1875 0
0.375 0.1875 0
0.40625 0.1875 0
0.375 0.21875 0
0.40625 0.21875 0
0.40625 0.1875 0
0.4375 0.1875 0
0.40625 0.21875 0
0.4375 0.21875 0
0.375 0.21875 0
0.40625 0.21875 0
0.375 0.25 0
0.40625 0.25 0
0.40625 0.21875 0
0.4375 0.21875 0
0.40625 0.25 0
0.4375 0.25 0
0.4375 0.1875 0
0.46875 0.1875 0
0.4375 0.21875 0
0.46875 0.21875 0
0.46875 0.1875 0
0.5 0.1875 0
0.46875 0.21875 0
0.5 0.21875 0
0.4375 0.21875 0
0.46875 0.21875 0
0.4375 0.25 0
0.46875 0.25 0
0.46875 0.21875 0
0.5 0.21875 0
0.46875 0.25 0
0.5 0.25 0
0 0.25 0
0.03125 0.25 0
0 0.28125 0
0.03125 0.28125 0
0.03125 0.25 0
0.0625 0.25 0
0.03125 0.28125 0
0.0625 0.28125 0
0 0.28125 0
0.03125 0.28125 0
0 0.3125 0
0.03125 0.3125 0
0.03125 0.28125 0
0.0625 0.28125 0
0.03125 0.3125 0
0.0625 0.3125 0
0.0625 0.25 0
0.09375 0.25 0
0.0625 0.28125 0
0.09375 0.28125 0
0.09375 0.25 0
0.125 0.25 0
0.09375 0.28125 0
0.125 0.28125 0
0.0625 0.28125 0
0.09375 0.28125 0
0.0625 0.3125 0
0.09375 0.3125 0
0.09375 0.28125 0
0.125 0.28125 0
0.09375 0.3125 0
0.125 0.3125 0
0 0.3125 0
0.03125 0.3125 0
0 0.34375 0
0.03125 0.34375 0
0.03125 0.3125 0
0.0625 0.3125 0
0.03125 0.34375 0
0.0625 0.34375 0
0 0.34375 0
0.03125 0.34375 0
0 0.375 0
0.03125 0.375 0
0.03125 0.34375 0
0.0625 0.34375 0
0.03125 0.375 0
0.0625 0.375 0
0.0625 0.3125 0
0.09375 0.3125 0
0.0625 0.34375 0
0.09375 0.34375 0
0.09375 0.3125 0
0.125 0.3125 0
0.09375 0.34375 0
0.125 0.34375 0
0.0625 0.34375 0
0.09375 0.34375 0
0.0625 0.375 0
0.09375 0.375 0
0.09375 0.34375 0
0.125 0.34375 0
0.09375 0.375 0
0.125 0.375 0
0.125 0.25 0
0.15625 0.25 0
0.125 0.28125 0
0.15625 0.28125 0
0.15625 0.25 0
0.1875 0.25 0
0.15625 0.28125 0
0.1875 0.28125 0
0.125 0.28125 0
0.15625 0.28125 0
0.125 0.3125 0
0.15625 0.3125 0
0.15625 0.28125 0
0.1875 0.28125 0
0.15625 0.3125 0
0.1875 0.3125 0
0.1875 0.25 0
0.21875 0.25 0
0.1875 0.28125 0
0.21875 0.28125 0
0.21875 0.25 0
0.25 0.25 0
0.21875 0.28125 0
0.25 0.28125 0
0.1875 0.28125 0
0.21875 0.28125 0
0.1875 0.3125 0
0.21875 0.3125 0
0.21875 0.28125 0
0.25 0.28125 0
0.21875 0.3125 0
0.25 0.3125 0
0.125 0.3125 0
0.15625 0.3125 0
0.125 0.34375 0
0.15625 0.34375 0
0.15625 0.3125 0
0.1875 0.3125 0
0.15625 0.34375 0
0.1875 0.34375 0
0.125 0.34375 0
[...]
POINT_DATA 4096
VECTORS velocity double
0 0 0
2.16059e-10 0 0
0 9.95795e-14 0
0.0058883 -0.0058883 0
2.16059e-10 0 0
4.44911e-10 0 0
0.0058883 -0.0058883 0
0.0233269 -0.0115503 0
0 9.95786e-14 0
0.0058883 -0.0058883 0
0 -4.16505e-10 0
0.0115503 -0.0233269 0
0.0058883 -0.0058883 0
0.0233269 -0.0115503 0
0.0115503 -0.0233269 0
0.0457574 -0.0457574 0
4.44911e-10 0 0
9.56152e-10 0 0
0.0233269 -0.0115503 0
0.0516457 -0.0167684 0
9.56152e-10 0 0
1.65994e-09 0 0
0.0516457 -0.0167684 0
0.0897563 -0.0213422 0
0.0233269 -0.0115503 0
0.0516457 -0.0167684 0
0.0457574 -0.0457574 0
0.101307 -0.0664294 0
0.0516457 -0.0167684 0
0.0897563 -0.0213422 0
0.101307 -0.0664294 0
0.176063 -0.0845486 0
0 -4.16505e-10 0
0.0115503 -0.0233269 0
0 -9.53305e-10 0
0.0167684 -0.0516457 0
0.0115503 -0.0233269 0
0.0457574 -0.0457574 0
0.0167684 -0.0516457 0
0.0664294 -0.101307 0
0 -9.53305e-10 0
0.0167684 -0.0516457 0
0 -1.65993e-09 0
0.0213422 -0.0897563 0
0.0167684 -0.0516457 0
0.0664294 -0.101307 0
0.0213422 -0.0897563 0
0.0845486 -0.176063 0
0.0457574 -0.0457574 0
0.101307 -0.0664294 0
0.0664294 -0.101307 0
0.147074 -0.147074 0
0.101307 -0.0664294 0
0.176063 -0.0845486 0
0.147074 -0.147074 0
0.255604 -0.18719 0
0.0664294 -0.101307 0
0.147074 -0.147074 0
0.0845486 -0.176063 0
0.18719 -0.255604 0
0.147074 -0.147074 0
0.255604 -0.18719 0
0.18719 -0.255604 0
0.325323 -0.325323 0
1.65994e-09 0 0
2.5192e-09 0 0
0.0897563 -0.0213422 0
0.136194 -0.0250958 0
2.5192e-09 0 0
3.49958e-09 0 0
0.136194 -0.0250958 0
0.189175 -0.0278849 0
0.0897563 -0.0213422 0
0.136194 -0.0250958 0
0.176063 -0.0845486 0
0.267155 -0.0994186 0
0.136194 -0.0250958 0
0.189175 -0.0278849 0
0.267155 -0.0994186 0
0.37108 -0.110468 0
3.49958e-09 0 0
4.56333e-09 0 0
0.189175 -0.0278849 0
0.246662 -0.0296025 0
4.56333e-09 0 0
5.6696e-09 0 0
0.246662 -0.0296025 0
0.306447 -0.0301824 0
0.189175 -0.0278849 0
0.246662 -0.0296025 0
0.37108 -0.110468 0
0.483845 -0.117272 0
0.246662 -0.0296025 0
0.306447 -0.0301824 0
0.483845 -0.117272 0
0.601118 -0.11957 0
0.176063 -0.0845486 0
0.267155 -0.0994186 0
0.255604 -0.18719 0
0.387848 -0.220112 0
0.267155 -0.0994186 0
0.37108 -0.110468 0
0.387848 -0.220112 0
0.538725 -0.244576 0
0.255604 -0.18719 0
0.387848 -0.220112 0
0.325323 -0.325323 0
0.493637 -0.382539 0
0.387848 -0.220112 0
0.538725 -0.244576 0
0.493637 -0.382539 0
0.685666 -0.425054 0
0.37108 -0.110468 0
0.483845 -0.117272 0
0.538725 -0.244576 0
0.702435 -0.25964 0
0.483845 -0.117272 0
0.601118 -0.11957 0
0.702435 -0.25964 0
0.872688 -0.264727 0
0.538725 -0.244576 0
0.702435 -0.25964 0
0.685666 -0.425054 0
0.89403 -0.451235 0
0.702435 -0.25964 0
0.872688 -0.264727 0
0.89403 -0.451235 0
1.11072 -0.460076 0
0 -1.65993e-09 0
0.0213422 -0.0897563 0
0 -2.51925e-09 0
0.0250958 -0.136194 0
0.0213422 -0.0897563 0
0.0845486 -0.176063 0
0.0250958 -0.136194 0
0.0994186 -0.267155 0
0 -2.51925e-09 0
0.0250958 -0.136194 0
0 -3.49959e-09 0
0.0278849 -0.189175 0
0.0250958 -0.136194 0
0.0994186 -0.267155 0
0.0278849 -0.189175 0
0.110468 -0.37108 0
0.0845486 -0.176063 0
0.18719 -0.255604 0
0.0994186 -0.267155 0
0.220112 -0.387848 0
0.18719 -0.255604 0
0.325323 -0.325323 0
0.220112 -0.387848 0
0.382539 -0.493637 0
0.0994186 -0.267155 0
0.220112 -0.387848 0
0.110468 -0.37108 0
0.244576 -0.538725 0
0.220112 -0.387848 0
0.382539 -0.493637 0
0.244576 -0.538725 0
0.425054 -0.685666 0
0 -3.49959e-09 0
0.0278849 -0.189175 0
0 -4.56333e-09 0
0.0296025 -0.246662 0
0.0278849 -0.189175 0
0.110468 -0.37108 0
0.0296025 -0.246662 0
0.117272 -0.483845 0
0 -4.56333e-09 0
0.0296025 -0.246662 0
0 -5.6696e-09 0
0.0301824 -0.306447 0
0.0296025 -0.246662 0
0.117272 -0.483845 0
0.0301824 -0.306447 0
0.11957 -0.601118 0
0.110468 -0.37108 0
0.244576 -0.538725 0
0.117272 -0.483845 0
0.25964 -0.702435 0
0.244576 -0.538725 0
0.425054 -0.685666 0
0.25964 -0.702435 0
0.451235 -0.89403 0
0.117272 -0.483845 0
0.25964 -0.702435 0
0.11957 -0.601118 0
0.264727 -0.872688 0
0.25964 -0.702435 0
0.451235 -0.89403 0
0.264727 -0.872688 0
0.460076 -1.11072 0
0.325323 -0.325323 0
0.493637 -0.382539 0
0.382539 -0.493637 0
0.580456 -0.580456 0
0.493637 -0.382539 0
0.685666 -0.425054 0
0.580456 -0.580456 0
0.806258 -0.644968 0
0.382539 -0.493637 0
0.580456 -0.580456 0
0.425054 -0.685666 0
0.644968 -0.806258 0
0.580456 -0.580456 0
0.806258 -0.644968 0
0.644968 -0.806258 0
0.895866 -0.895866 0
0.685666 -0.425054 0
0.89403 -0.451235 0
0.806258 -0.644968 0
1.05127 -0.684695 0
0.89403 -0.451235 0
1.11072 -0.460076 0
1.05127 -0.684695 0
1.30607 -0.698109 0
0.806258 -0.644968 0
1.05127 -0.684695 0
0.895866 -0.895866 0
1.16811 -0.951046 0
1.05127 -0.684695 0
1.30607 -0.698109 0
1.16811 -0.951046 0
1.45123 -0.969679 0
0.425054 -0.685666 0
0.644968 -0.806258 0
0.451235 -0.89403 0
0.684695 -1.05127 0
0.644968 -0.806258 0
0.895866 -0.895866 0
0.684695 -1.05127 0
0.951046 -1.16811 0
0.451235 -0.89403 0
0.684695 -1.05127 0
0.460076 -1.11072 0
0.698109 -1.30607 0
0.684695 -1.05127 0
0.951046 -1.16811 0
0.698109 -1.30607 0
0.969679 -1.45123 0
0.895866 -0.895866 0
1.16811 -0.951046 0
0.951046 -1.16811 0
1.24006 -1.24006 0
1.16811 -0.951046 0
1.45123 -0.969679 0
1.24006 -1.24006 0
1.54061 -1.26435 0
0.951046 -1.16811 0
1.24006 -1.24006 0
0.969679 -1.45123 0
1.26435 -1.54061 0
1.24006 -1.24006 0
1.54061 -1.26435 0
1.26435 -1.54061 0
1.5708 -1.5708 0
5.6696e-09 0 0
6.77586e-09 0 0
0.306447 -0.0301824 0
0.366232 -0.0296025 0
6.77586e-09 0 0
7.83961e-09 0 0
0.366232 -0.0296025 0
0.423719 -0.0278849 0
0.306447 -0.0301824 0
0.366232 -0.0296025 0
0.601118 -0.11957 0
0.71839 -0.117272 0
0.366232 -0.0296025 0
0.423719 -0.0278849 0
0.71839 -0.117272 0
0.831156 -0.110468 0
7.83961e-09 0 0
8.81997e-09 0 0
0.423719 -0.0278849 0
0.4767 -0.0250958 0
8.81997e-09 0 0
9.67927e-09 0 0
0.4767 -0.0250958 0
0.523138 -0.0213422 0
0.423719 -0.0278849 0
0.4767 -0.0250958 0
0.831156 -0.110468 0
0.935081 -0.0994186 0
0.4767 -0.0250958 0
0.523138 -0.0213422 0
0.935081 -0.0994186 0
1.02617 -0.0845486 0
0.601118 -0.11957 0
0.71839 -0.117272 0
0.872688 -0.264727 0
1.04294 -0.25964 0
0.71839 -0.117272 0
0.831156 -0.110468 0
1.04294 -0.25964 0
1.20665 -0.244576 0
0.872688 -0.264727 0
1.04294 -0.25964 0
1.11072 -0.460076 0
1.32741 -0.451235 0
1.04294 -0.25964 0
1.20665 -0.244576 0
1.32741 -0.451235 0
1.53578 -0.425054 0
0.831156 -0.110468 0
0.935081 -0.0994186 0
1.20665 -0.244576 0
1.35753 -0.220112 0
0.935081 -0.0994186 0
1.02617 -0.0845486 0
1.35753 -0.220112 0
1.48977 -0.18719 0
1.20665 -0.244576 0
1.35753 -0.220112 0
1.53578 -0.425054 0
1.7278 -0.382539 0
1.35753 -0.220112 0
1.48977 -0.18719 0
1.7278 -0.382539 0
1.89612 -0.325323 0
9.67927e-09 0 0
1.03845e-08 0 0
0.523138 -0.0213422 0
0.561249 -0.0167684 0
1.03845e-08 0 0
1.09085e-08 0 0
0.561249 -0.0167684 0
0.589567 -0.0115503 0
0.523138 -0.0213422 0
0.561249 -0.0167684 0
1.02617 -0.0845486 0
1.10093 -0.0664294 0
0.561249 -0.0167684 0
0.589567 -0.0115503 0
1.10093 -0.0664294 0
1.15648 -0.0457574 0
1.09085e-08 0 0
1.12312e-08 0 0
0.589567 -0.0115503 0
0.607006 -0.0058883 0
1.12312e-08 0 0
1.13401e-08 0 0
0.607006 -0.0058883 0
0.612894 -1.08025e-10 0
0.589567 -0.0115503 0
0.607006 -0.0058883 0
1.15648 -0.0457574 0
1.19069 -0.0233269 0
0.607006 -0.0058883 0
0.612894 -1.08025e-10 0
1.19069 -0.0233269 0
1.20224 -4.30741e-10 0
1.02617 -0.0845486 0
1.10093 -0.0664294 0
1.48977 -0.18719 0
1.5983 -0.147074 0
1.10093 -0.0664294 0
1.15648 -0.0457574 0
1.5983 -0.147074 0
1.67895 -0.101307 0
1.48977 -0.18719 0
1.5983 -0.147074 0
1.89612 -0.325323 0
2.03425 -0.255604 0
1.5983 -0.147074 0
1.67895 -0.101307 0
2.03425 -0.255604 0
2.13689 -0.176063 0
1.15648 -0.0457574 0
1.19069 -0.0233269 0
1.67895 -0.101307 0
1.72861 -0.0516457 0
1.19069 -0.0233269 0
1.20224 -4.30741e-10 0
1.72861 -0.0516457 0
1.74538 -9.54737e-10 0
1.67895 -0.101307 0
1.72861 -0.0516457 0
2.13689 -0.176063 0
2.2001 -0.0897563 0
1.72861 -0.0516457 0
1.74538 -9.54737e-10 0
2.2001 -0.0897563 0
2.22144 -1.6599e-09 0
1.11072 -0.460076 0
1.32741 -0.451235 0
1.30607 -0.698109 0
1.56087 -0.684695 0
1.32741 -0.451235 0
1.53578 -0.425054 0
1.56087 -0.684695 0
1.80588 -0.644968 0
1.30607 -0.698109 0
1.56087 -0.684695 0
1.45123 -0.969679 0
1.73435 -0.951046 0
1.56087 -0.684695 0
1.80588 -0.644968 0
1.73435 -0.951046 0
2.00659 -0.895866 0
1.53578 -0.425054 0
1.7278 -0.382539 0
1.80588 -0.644968 0
2.03168 -0.580456 0
1.7278 -0.382539 0
1.89612 -0.325323 0
2.03168 -0.580456 0
2.2296 -0.493637 0
1.80588 -0.644968 0
2.03168 -0.580456 0
2.00659 -0.895866 0
2.25748 -0.806258 0
2.03168 -0.580456 0
2.2296 -0.493637 0
2.25748 -0.806258 0
2.4774 -0.685666 0
1.45123 -0.969679 0
1.73435 -0.951046 0
1.54061 -1.26435 0
1.84117 -1.24006 0
1.73435 -0.951046 0
2.00659 -0.895866 0
1.84117 -1.24006 0
2.13018 -1.16811 0
1.54061 -1.26435 0
1.84117 -1.24006 0
1.5708 -1.5708 0
1.87724 -1.54061 0
1.84117 -1.24006 0
2.13018 -1.16811 0
1.87724 -1.54061 0
2.17191 -1.45123 0
2.00659 -0.895866 0
2.25748 -0.806258 0
2.13018 -1.16811 0
2.39653 -1.05127 0
2.25748 -0.806258 0
2.4774 -0.685666 0
2.39653 -1.05127 0
2.62999 -0.89403 0
2.13018 -1.16811 0
2.39653 -1.05127 0
2.17191 -1.45123 0
2.44348 -1.30607 0
2.39653 -1.05127 0
2.62999 -0.89403 0
2.44348 -1.30607 0
2.68152 -1.11072 0
1.89612 -0.325323 0
2.03425 -0.255604 0
2.2296 -0.493637 0
2.39203 -0.387848 0
2.03425 -0.255604 0
2.13689 -0.176063 0
2.39203 -0.387848 0
2.51272 -0.267155 0
2.2296 -0.493637 0
2.39203 -0.387848 0
2.4774 -0.685666 0
2.65788 -0.538725 0
2.39203 -0.387848 0
2.51272 -0.267155 0
2.65788 -0.538725 0
2.79199 -0.37108 0
2.13689 -0.176063 0
2.2001 -0.0897563 0
2.51272 -0.267155 0
2.58704 -0.136194 0
2.2001 -0.0897563 0
2.22144 -1.6599e-09 0
2.58704 -0.136194 0
2.61214 -2.51913e-09 0
2.51272 -0.267155 0
2.58704 -0.136194 0
2.79199 -0.37108 0
2.87457 -0.189175 0
2.58704 -0.136194 0
2.61214 -2.51913e-09 0
2.87457 -0.189175 0
2.90245 -3.49942e-09 0
2.4774 -0.685666 0
2.65788 -0.538725 0
2.62999 -0.89403 0
2.82159 -0.702435 0
2.65788 -0.538725 0
2.79199 -0.37108 0
2.82159 -0.702435 0
2.96396 -0.483845 0
2.62999 -0.89403 0
2.82159 -0.702435 0
2.68152 -1.11072 0
2.87687 -0.872688 0
2.82159 -0.702435 0
2.96396 -0.483845 0
2.87687 -0.872688 0
3.02202 -0.601118 0
2.79199 -0.37108 0
2.87457 -0.189175 0
2.96396 -0.483845 0
3.05163 -0.246662 0
2.87457 -0.189175 0
2.90245 -3.49942e-09 0
3.05163 -0.246662 0
3.08123 -4.56314e-09 0
2.96396 -0.483845 0
3.05163 -0.246662 0
3.02202 -0.601118 0
3.11141 -0.306447 0
3.05163 -0.246662 0
3.08123 -4.56314e-09 0
3.11141 -0.306447 0
3.14159 -5.66938e-09 0
0 -5.6696e-09 0
0.0301824 -0.306447 0
0 -6.77586e-09 0
0.0296025 -0.366232 0
0.0301824 -0.306447 0
0.11957 -0.601118 0
0.0296025 -0.366232 0
0.117272 -0.71839 0
0 -6.77586e-09 0
0.0296025 -0.366232 0
0 -7.83961e-09 0
0.0278849 -0.423719 0
0.0296025 -0.366232 0
0.117272 -0.71839 0
0.0278849 -0.423719 0
0.110468 -0.831156 0
0.11957 -0.601118 0
0.264727 -0.872688 0
0.117272 -0.71839 0
0.25964 -1.04294 0
0.264727 -0.872688 0
0.460076 -1.11072 0
0.25964 -1.04294 0
0.451235 -1.32741 0
0.117272 -0.71839 0
0.25964 -1.04294 0
0.110468 -0.831156 0
0.244576 -1.20665 0
0.25964 -1.04294 0
0.451235 -1.32741 0
0.244576 -1.20665 0
0.425054 -1.53578 0
0 -7.83961e-09 0
0.0278849 -0.423719 0
0 -8.81997e-09 0
0.0250958 -0.4767 0
0.0278849 -0.423719 0
0.110468 -0.831156 0
0.0250958 -0.4767 0
0.0994186 -0.935081 0
0 -8.81997e-09 0
0.0250958 -0.4767 0
0 -9.67927e-09 0
0.0213422 -0.523138 0
0.0250958 -0.4767 0
0.0994186 -0.935081 0
0.0213422 -0.523138 0
0.0845486 -1.02617 0
0.110468 -0.831156 0
0.244576 -1.20665 0
0.0994186 -0.935081 0
0.220112 -1.35753 0
0.244576 -1.20665 0
0.425054 -1.53578 0
0.220112 -1.35753 0
0.382539 -1.7278 0
0.0994186 -0.935081 0
0.220112 -1.35753 0
0.0845486 -1.02617 0
0.18719 -1.48977 0
0.220112 -1.35753 0
0.382539 -1.7278 0
0.18719 -1.48977 0
0.325323 -1.89612 0
0.460076 -1.11072 0
0.698109 -1.30607 0
0.451235 -1.32741 0
0.684695 -1.56087 0
0.698109 -1.30607 0
0.969679 -1.45123 0
0.684695 -1.56087 0
0.951046 -1.73435 0
0.451235 -1.32741 0
0.684695 -1.56087 0
0.425054 -1.53578 0
0.644968 -1.80588 0
0.684695 -1.56087 0
0.951046 -1.73435 0
0.644968 -1.80588 0
0.895866 -2.00659 0
0.969679 -1.45123 0
1.26435 -1.54061 0
0.951046 -1.73435 0
1.24006 -1.84117 0
1.26435 -1.54061 0
1.5708 -1.5708 0
1.24006 -1.84117 0
1.54061 -1.87724 0
0.951046 -1.73435 0
1.24006 -1.84117 0
0.895866 -2.00659 0
1.16811 -2.13018 0
1.24006 -1.84117 0
1.54061 -1.87724 0
1.16811 -2.13018 0
1.45123 -2.17191 0
0.425054 -1.53578 0
0.644968 -1.80588 0
0.382539 -1.7278 0
0.580456 -2.03168 0
0.644968 -1.80588 0
0.895866 -2.00659 0
0.580456 -2.03168 0
0.806258 -2.25748 0
0.382539 -1.7278 0
0.580456 -2.03168 0
0.325323 -1.89612 0
0.493637 -2.2296 0
0.580456 -2.03168 0
0.806258 -2.25748 0
0.493637 -2.2296 0
0.685666 -2.4774 0
0.895866 -2.00659 0
1.16811 -2.13018 0
0.806258 -2.25748 0
1.05127 -2.39653 0
1.16811 -2.13018 0
1.45123 -2.17191 0
1.05127 -2.39653 0
1.30607 -2.44348 0
0.806258 -2.25748 0
1.05127 -2.39653 0
0.685666 -2.4774 0
0.89403 -2.62999 0
1.05127 -2.39653 0
1.30607 -2.44348 0
0.89403 -2.62999 0
1.11072 -2.68152 0
0 -9.67927e-09 0
0.0213422 -0.523138 0
0 -1.03845e-08 0
0.0167684 -0.561249 0
0.0213422 -0.523138 0
0.0845486 -1.02617 0
0.0167684 -0.561249 0
0.0664294 -1.10093 0
0 -1.03845e-08 0
0.0167684 -0.561249 0
0 -1.09085e-08 0
0.0115503 -0.589567 0
0.0167684 -0.561249 0
0.0664294 -1.10093 0
0.0115503 -0.589567 0
0.0457574 -1.15648 0
0.0845486 -1.02617 0
0.18719 -1.48977 0
0.0664294 -1.10093 0
0.147074 -1.5983 0
0.18719 -1.48977 0
0.325323 -1.89612 0
0.147074 -1.5983 0
0.255604 -2.03425 0
0.0664294 -1.10093 0
0.147074 -1.5983 0
0.0457574 -1.15648 0
0.101307 -1.67895 0
0.147074 -1.5983 0
0.255604 -2.03425 0
0.101307 -1.67895 0
0.176063 -2.13689 0
0 -1.09085e-08 0
0.0115503 -0.589567 0
0 -1.12312e-08 0
0.0058883 -0.607006 0
0.0115503 -0.589567 0
0.0457574 -1.15648 0
0.0058883 -0.607006 0
0.0233269 -1.19069 0
0 -1.12312e-08 0
0.0058883 -0.607006 0
0 -1.13401e-08 0
1.19426e-10 -0.612894 0
0.0058883 -0.607006 0
0.0233269 -1.19069 0
1.19426e-10 -0.612894 0
4.50028e-10 -1.20224 0
0.0457574 -1.15648 0
0.101307 -1.67895 0
0.0233269 -1.19069 0
0.0516457 -1.72861 0
0.101307 -1.67895 0
0.176063 -2.13689 0
0.0516457 -1.72861 0
0.0897563 -2.2001 0
0.0233269 -1.19069 0
0.0516457 -1.72861 0
4.50028e-10 -1.20224 0
9.80422e-10 -1.74538 0
0.0516457 -1.72861 0
0.0897563 -2.2001 0
9.80422e-10 -1.74538 0
1.69172e-09 -2.22144 0
0.325323 -1.89612 0
0.493637 -2.2296 0
0.255604 -2.03425 0
0.387848 -2.39203 0
0.493637 -2.2296 0
0.685666 -2.4774 0
0.387848 -2.39203 0
0.538725 -2.65788 0
0.255604 -2.03425 0
0.387848 -2.39203 0
0.176063 -2.13689 0
0.267155 -2.51272 0
0.387848 -2.39203 0
0.538725 -2.65788 0
0.267155 -2.51272 0
0.37108 -2.79199 0
0.685666 -2.4774 0
0.89403 -2.62999 0
0.538725 -2.65788 0
0.702435 -2.82159 0
0.89403 -2.62999 0
1.11072 -2.68152 0
0.702435 -2.82159 0
0.872688 -2.87687 0
0.538725 -2.65788 0
0.702435 -2.82159 0
0.37108 -2.79199 0
0.483845 -2.96396 0
0.702435 -2.82159 0
0.872688 -2.87687 0
0.483845 -2.96396 0
0.601118 -3.02202 0
0.176063 -2.13689 0
0.267155 -2.51272 0
0.0897563 -2.2001 0
0.136194 -2.58704 0
0.267155 -2.51272 0
0.37108 -2.79199 0
0.136194 -2.58704 0
0.189175 -2.87457 0
0.0897563 -2.2001 0
0.136194 -2.58704 0
1.69172e-09 -2.22144 0
2.55738e-09 -2.61214 0
0.136194 -2.58704 0
0.189175 -2.87457 0
2.55738e-09 -2.61214 0
3.54448e-09 -2.90245 0
0.37108 -2.79199 0
0.483845 -2.96396 0
0.189175 -2.87457 0
0.246662 -3.05163 0
0.483845 -2.96396 0
0.601118 -3.02202 0
0.246662 -3.05163 0
0.306447 -3.11141 0
0.189175 -2.87457 0
0.246662 -3.05163 0
3.54448e-09 -2.90245 0
4.61516e-09 -3.08123 0
0.246662 -3.05163 0
0.306447 -3.11141 0
4.61516e-09 -3.08123 0
5.72825e-09 -3.14159 0
1.5708 -1.5708 0
1.87724 -1.54061 0
1.54061 -1.87724 0
1.84117 -1.84117 0
1.87724 -1.54061 0
2.17191 -1.45123 0
1.84117 -1.84117 0
2.13018 -1.73435 0
1.54061 -1.87724 0
1.84117 -1.84117 0
1.45123 -2.17191 0
1.73435 -2.13018 0
1.84117 -1.84117 0
2.13018 -1.73435 0
1.73435 -2.13018 0
2.00659 -2.00659 0
2.17191 -1.45123 0
2.44348 -1.30607 0
2.13018 -1.73435 0
2.39653 -1.56087 0
2.44348 -1.30607 0
2.68152 -1.11072 0
2.39653 -1.56087 0
2.62999 -1.32741 0
2.13018 -1.73435 0
2.39653 -1.56087 0
2.00659 -2.00659 0
2.25748 -1.80588 0
2.39653 -1.56087 0
2.62999 -1.32741 0
2.25748 -1.80588 0
2.4774 -1.53578 0
1.45123 -2.17191 0
1.73435 -2.13018 0
1.30607 -2.44348 0
1.56087 -2.39653 0
1.73435 -2.13018 0
2.00659 -2.00659 0
1.56087 -2.39653 0
1.80588 -2.25748 0
1.30607 -2.44348 0
1.56087 -2.39653 0
1.11072 -2.68152 0
1.32741 -2.62999 0
1.56087 -2.39653 0
1.80588 -2.25748 0
1.32741 -2.62999 0
1.53578 -2.4774 0
2.00659 -2.00659 0
2.25748 -1.80588 0
1.80588 -2.25748 0
2.03168 -2.03168 0
2.25748 -1.80588 0
2.4774 -1.53578 0
2.03168 -2.03168 0
2.2296 -1.7278 0
1.80588 -2.25748 0
2.03168 -2.03168 0
1.53578 -2.4774 0
1.7278 -2.2296 0
2.03168 -2.03168 0
2.2296 -1.7278 0
1.7278 -2.2296 0
1.89612 -1.89612 0
2.68152 -1.11072 0
2.87687 -0.872688 0
2.62999 -1.32741 0
2.82159 -1.04294 0
2.87687 -0.872688 0
3.02202 -0.601118 0
2.82159 -1.04294 0
2.96396 -0.71839 0
2.62999 -1.32741 0
2.82159 -1.04294 0
2.4774 -1.53578 0
2.65788 -1.20665 0
2.82159 -1.04294 0
2.96396 -0.71839 0
2.65788 -1.20665 0
2.79199 -0.831156 0
3.02202 -0.601118 0
3.11141 -0.306447 0
2.96396 -0.71839 0
3.05163 -0.366232 0
3.11141 -0.306447 0
3.14159 -5.66938e-09 0
3.05163 -0.366232 0
3.08123 -6.77564e-09 0
2.96396 -0.71839 0
3.05163 -0.366232 0
2.79199 -0.831156 0
2.87457 -0.423719 0
3.05163 -0.366232 0
3.08123 -6.77564e-09 0
2.87457 -0.423719 0
2.90245 -7.8394e-09 0
2.4774 -1.53578 0
2.65788 -1.20665 0
2.2296 -1.7278 0
2.39203 -1.35753 0
2.65788 -1.20665 0
2.79199 -0.831156 0
2.39203 -1.35753 0
2.51272 -0.935081 0
2.2296 -1.7278 0
2.39203 -1.35753 0
1.89612 -1.89612 0
2.03425 -1.48977 0
2.39203 -1.35753 0
2.51272 -0.935081 0
2.03425 -1.48977 0
2.13689 -1.02617 0
2.79199 -0.831156 0
2.87457 -0.423719 0
2.51272 -0.935081 0
2.58704 -0.4767 0
2.87457 -0.423719 0
2.90245 -7.8394e-09 0
2.58704 -0.4767 0
2.61214 -8.8198e-09 0
2.51272 -0.935081 0
2.58704 -0.4767 0
2.13689 -1.02617 0
2.2001 -0.523138 0
2.58704 -0.4767 0
2.61214 -8.8198e-09 0
2.2001 -0.523138 0
2.22144 -9.67916e-09 0
1.11072 -2.68152 0
1.32741 -2.62999 0
0.872688 -2.87687 0
1.04294 -2.82159 0
1.32741 -2.62999 0
1.53578 -2.4774 0
1.04294 -2.82159 0
1.20665 -2.65788 0
0.872688 -2.87687 0
1.04294 -2.82159 0
0.601118 -3.02202 0
0.71839 -2.96396 0
1.04294 -2.82159 0
1.20665 -2.65788 0
0.71839 -2.96396 0
0.831156 -2.79199 0
1.53578 -2.4774 0
1.7278 -2.2296 0
1.20665 -2.65788 0
1.35753 -2.39203 0
1.7278 -2.2296 0
1.89612 -1.89612 0
1.35753 -2.39203 0
1.48977 -2.03425 0
1.20665 -2.65788 0
1.35753 -2.39203 0
0.831156 -2.79199 0
0.935081 -2.51272 0
1.35753 -2.39203 0
1.48977 -2.03425 0
0.935081 -2.51272 0
1.02617 -2.13689 0
0.601118 -3.02202 0
0.71839 -2.96396 0
0.306447 -3.11141 0
0.366232 -3.05163 0
0.71839 -2.96396 0
0.831156 -2.79199 0
0.366232 -3.05163 0
0.423719 -2.87457 0
0.306447 -3.11141 0
0.366232 -3.05163 0
5.72825e-09 -3.14159 0
6.84095e-09 -3.08123 0
0.366232 -3.05163 0
0.423719 -2.87457 0
6.84095e-09 -3.08123 0
7.91054e-09 -2.90245 0
0.831156 -2.79199 0
0.935081 -2.51272 0
0.423719 -2.87457 0
0.4767 -2.58704 0
0.935081 -2.51272 0
1.02617 -2.13689 0
0.4767 -2.58704 0
0.523138 -2.2001 0
0.423719 -2.87457 0
0.4767 -2.58704 0
7.91054e-09 -2.90245 0
8.89596e-09 -2.61214 0
0.4767 -2.58704 0
0.523138 -2.2001 0
8.89596e-09 -2.61214 0
9.75943e-09 -2.22144 0
1.89612 -1.89612 0
2.03425 -1.48977 0
1.48977 -2.03425 0
1.5983 -1.5983 0
2.03425 -1.48977 0
2.13689 -1.02617 0
1.5983 -1.5983 0
1.67895 -1.10093 0
1.48977 -2.03425 0
1.5983 -1.5983 0
1.02617 -2.13689 0
1.10093 -1.67895 0
1.5983 -1.5983 0
1.67895 -1.10093 0
1.10093 -1.67895 0
1.15648 -1.15648 0
2.13689 -1.02617 0
2.2001 -0.523138 0
1.67895 -1.10093 0
1.72861 -0.561249 0
2.2001 -0.523138 0
2.22144 -9.67916e-09 0
1.72861 -0.561249 0
1.74538 -1.03844e-08 0
1.67895 -1.10093 0
1.72861 -0.561249 0
1.15648 -1.15648 0
1.19069 -0.589567 0
1.72861 -0.561249 0
1.74538 -1.03844e-08 0
1.19069 -0.589567 0
1.20224 -1.09085e-08 0
1.02617 -2.13689 0
1.10093 -1.67895 0
0.523138 -2.2001 0
0.561249 -1.72861 0