# vtk DataFile Version 3.0
#This file was generated by the deal.II library on 2017/9/21 at 11:29:48
ASCII
DATASET UNSTRUCTURED_GRID

POINTS 64 double
0 0 0
0.25 0 0
0 0.25 0
0.25 0.25 0
0.25 0 0
0.5 0 0
0.25 0.25 0
0.5 0.25 0
0 0.25 0
0.25 0.25 0
0 0.5 0
0.25 0.5 0
0.25 0.25 0
0.5 0.25 0
0.25 0.5 0
0.5 0.5 0
0.5 0 0
0.75 0 0
0.5 0.25 0
0.75 0.25 0
0.75 0 0
1 0 0
0.75 0.25 0
1 0.25 0
0.5 0.25 0
0.75 0.25 0
0.5 0.5 0
0.75 0.5 0
0.75 0.25 0
1 0.25 0
0.75 0.5 0
1 0.5 0
0 0.5 0
0.25 0.5 0
0 0.75 0
0.25 0.75 0
0.25 0.5 0
0.5 0.5 0
0.25 0.75 0
0.5 0.75 0
0 0.75 0
0.25 0.75 0
0 1 0
0.25 1 0
0.25 0.75 0
0.5 0.75 0
0.25 1 0
0.5 1 0
0.5 0.5 0
0.75 0.5 0
0.5 0.75 0
0.75 0.75 0
0.75 0.5 0
1 0.5 0
0.75 0.75 0
1 0.75 0
0.5 0.75 0
0.75 0.75 0
0.5 1 0
0.75 1 0
0.75 0.75 0
1 0.75 0
0.75 1 0
1 1 0

CELLS 16 80
4	0	1	3	2
4	4	5	7	6
4	8	9	11	10
4	12	13	15	14
4	16	17	19	18
4	20	21	23	22
4	24	25	27	26
4	28	29	31	30
4	32	33	35	34
4	36	37	39	38
4	40	41	43	42
4	44	45	47	46
4	48	49	51	50
4	52	53	55	54
4	56	57	59	58
4	60	61	63	62

CELL_TYPES 16
 9 9 9 9 9 9 9 9 9 9 9 9 9 9 9 9
POINT_DATA 64
VECTORS velocity double
0 0 0
0.000151019 0 0
0 -0.000151019 0
1.5708 -1.5708 0
0.000151019 0 0
0.000303465 0 0
1.5708 -1.5708 0
3.14159 -0.000151025 0
0 -0.000151019 0
1.5708 -1.5708 0
0 -0.000303465 0
0.000151025 -3.14159 0
1.5708 -1.5708 0
3.14159 -0.000151025 0
0.000151025 -3.14159 0
0.000303841 -0.000303841 0
0.000303465 0 0
0.000151019 0 0
3.14159 0.000151025 0
1.5708 1.5708 0
0.000151019 0 0
0 0 0
1.5708 1.5708 0
0 0.000151019 0
3.14159 0.000151025 0
1.5708 1.5708 0
0.000303841 0.000303841 0
0.000151025 3.14159 0
1.5708 1.5708 0
0 0.000151019 0
0.000151025 3.14159 0
0 0.000303465 0
0 -0.000303465 0
-0.000151025 -3.14159 0
0 -0.000151019 0
-1.5708 -1.5708 0
-0.000151025 -3.14159 0
-0.000303841 -0.000303841 0
-1.5708 -1.5708 0
-3.14159 -0.000151025 0
0 -0.000151019 0
-1.5708 -1.5708 0
0 0 0
-0.000151019 0 0
-1.5708 -1.5708 0
-3.14159 -0.000151025 0
-0.000151019 0 0
-0.000303464 0 0
-0.000303841 0.000303841 0
-0.000151025 3.14159 0
-3.14159 0.000151025 0
-1.5708 1.5708 0
-0.000151025 3.14159 0
0 0.000303465 0
-1.5708 1.5708 0
0 0.000151019 0
-3.14159 0.000151025 0
-1.5708 1.5708 0
-0.000303464 0 0
-0.000151019 0 0
-1.5708 1.5708 0
0 0.000151019 0
-0.000151019 0 0
0 0 0
SCALARS pressure double 1
LOOKUP_TABLE default
9.2071e-06 0.00228429 0.704818 0.499997 0.00226004 -0.000263923 0.500015 -0.00138126 0.704855 0.499978 1.00026 0.708496 0.499997 -0.00136 0.708462 9.19616e-06 0.000263923 -0.00226004 0.00138126 -0.500015 -0.00228429 -9.20705e-06 -0.499997 -0.704818 0.00136 -0.499997 -9.19629e-06 -0.708462 -0.499978 -0.704855 -0.708496 -1.00026 0.999729 0.705721 0.709362 0.500033 0.705729 9.19606e-06 0.499997 0.00137297 0.709373 0.499997 9.20521e-06 -0.00227123 0.49996 0.00139424 -0.00224728 0.000264016 -9.19647e-06 -0.705729 -0.00137297 -0.499997 -0.705721 -0.999729 -0.500033 -0.709362 -0.00139424 -0.49996 -0.000264016 0.00224728 -0.499997 -0.709373 0.00227123 -9.20517e-06 
SCALARS global_div_diff double 1
LOOKUP_TABLE default
3.55933e-10 3.55933e-10 3.55933e-10 3.55933e-10 8.17885e-10 8.17885e-10 8.17885e-10 8.17885e-10 1.43895e-09 1.43895e-09 1.43895e-09 1.43895e-09 3.19768e-10 3.19768e-10 3.19768e-10 3.19768e-10 8.20064e-10 8.20064e-10 8.20064e-10 8.20064e-10 3.54142e-10 3.54142e-10 3.54142e-10 3.54142e-10 3.19456e-10 3.19456e-10 3.19456e-10 3.19456e-10 1.43774e-09 1.43774e-09 1.43774e-09 1.43774e-09 1.43837e-09 1.43837e-09 1.43837e-09 1.43837e-09 3.19369e-10 3.19369e-10 3.19369e-10 3.19369e-10 3.5565e-10 3.5565e-10 3.5565e-10 3.5565e-10 8.2096e-10 8.2096e-10 8.2096e-10 8.2096e-10 3.20569e-10 3.20569e-10 3.20569e-10 3.20569e-10 1.43834e-09 1.43834e-09 1.43834e-09 1.43834e-09 8.20985e-10 8.20985e-10 8.20985e-10 8.20985e-10 3.57058e-10 3.57058e-10 3.57058e-10 3.57058e-10 
SCALARS cell_div_diff double 1
LOOKUP_TABLE default
3.55934e-10 3.55934e-10 3.55934e-10 3.55934e-10 8.17886e-10 8.17886e-10 8.17886e-10 8.17886e-10 1.43895e-09 1.43895e-09 1.43895e-09 1.43895e-09 3.1977e-10 3.1977e-10 3.1977e-10 3.1977e-10 8.20064e-10 8.20064e-10 8.20064e-10 8.20064e-10 3.54141e-10 3.54141e-10 3.54141e-10 3.54141e-10 3.19457e-10 3.19457e-10 3.19457e-10 3.19457e-10 1.43775e-09 1.43775e-09 1.43775e-09 1.43775e-09 1.43837e-09 1.43837e-09 1.43837e-09 1.43837e-09 3.19368e-10 3.19368e-10 3.19368e-10 3.19368e-10 3.5565e-10 3.5565e-10 3.5565e-10 3.5565e-10 8.20958e-10 8.20958e-10 8.20958e-10 8.20958e-10 3.20568e-10 3.20568e-10 3.20568e-10 3.20568e-10 1.43834e-09 1.43834e-09 1.43834e-09 1.43834e-09 8.20984e-10 8.20984e-10 8.20984e-10 8.20984e-10 3.57057e-10 3.57057e-10 3.57057e-10 3.57057e-10 
SCALARS global_l2_diff double 1
LOOKUP_TABLE default
2.53959e-05 2.53959e-05 2.53959e-05 2.53959e-05 6.28513e-05 6.28513e-05 6.28513e-05 6.28513e-05 6.28513e-05 6.28513e-05 6.28513e-05 6.28513e-05 8.51921e-05 8.51921e-05 8.51921e-05 8.51921e-05 6.28513e-05 6.28513e-05 6.28513e-05 6.28513e-05 2.53959e-05 2.53959e-05 2.53959e-05 2.53959e-05 8.51921e-05 8.51921e-05 8.51921e-05 8.51921e-05 6.28513e-05 6.28513e-05 6.28513e-05 6.28513e-05 6.28513e-05 6.28513e-05 6.28513e-05 6.28513e-05 8.51921e-05 8.51921e-05 8.51921e-05 8.51921e-05 2.53959e-05 2.53959e-05 2.53959e-05 2.53959e-05 6.28513e-05 6.28513e-05 6.28513e-05 6.28513e-05 8.51921e-05 8.51921e-05 8.51921e-05 8.51921e-05 6.28513e-05 6.28513e-05 6.28513e-05 6.28513e-05 6.28513e-05 6.28513e-05 6.28513e-05 6.28513e-05 2.53959e-05 2.53959e-05 2.53959e-05 2.53959e-05 
SCALARS global_h1_diff double 1
LOOKUP_TABLE default
0.00147654 0.00147654 0.00147654 0.00147654 0.00372995 0.00372995 0.00372995 0.00372995 0.00372995 0.00372995 0.00372995 0.00372995 0.00506379 0.00506379 0.00506379 0.00506379 0.00372995 0.00372995 0.00372995 0.00372995 0.00147654 0.00147654 0.00147654 0.00147654 0.00506379 0.00506379 0.00506379 0.00506379 0.00372995 0.00372995 0.00372995 0.00372995 0.00372995 0.00372995 0.00372995 0.00372995 0.00506379 0.00506379 0.00506379 0.00506379 0.00147654 0.00147654 0.00147654 0.00147654 0.00372995 0.00372995 0.00372995 0.00372995 0.00506379 0.00506379 0.00506379 0.00506379 0.00372995 0.00372995 0.00372995 0.00372995 0.00372995 0.00372995 0.00372995 0.00372995 0.00147654 0.00147654 0.00147654 0.00147654 
