# vtk DataFile Version 3.0
#This file was generated by the deal.II library on 2017/9/21 at 11:29:44
ASCII
DATASET UNSTRUCTURED_GRID

POINTS 4 double
0 0 0
1 0 0
0 1 0
1 1 0

CELLS 1 5
4	0	1	3	2

CELL_TYPES 1
 9
POINT_DATA 4
VECTORS velocity double
0 0 0
0 0 0
0 0 0
0 0 0
SCALARS pressure double 1
LOOKUP_TABLE default
0.00132318 -0.00132318 0.00132318 -0.00132318 
SCALARS global_div_diff double 1
LOOKUP_TABLE default
6.2843e-15 6.2843e-15 6.2843e-15 6.2843e-15 
SCALARS cell_div_diff double 1
LOOKUP_TABLE default
7.32912e-15 7.32912e-15 7.32912e-15 7.32912e-15 
SCALARS global_l2_diff double 1
LOOKUP_TABLE default
0.228434 0.228434 0.228434 0.228434 
SCALARS global_h1_diff double 1
LOOKUP_TABLE default
3.72469 3.72469 3.72469 3.72469 
