# vtk DataFile Version 3.0
#This file was generated by the deal.II library on 2017/9/21 at 11:29:45
ASCII
DATASET UNSTRUCTURED_GRID

POINTS 16 double
0 0 0
0.5 0 0
0 0.5 0
0.5 0.5 0
0.5 0 0
1 0 0
0.5 0.5 0
1 0.5 0
0 0.5 0
0.5 0.5 0
0 1 0
0.5 1 0
0.5 0.5 0
1 0.5 0
0.5 1 0
1 1 0

CELLS 4 20
4	0	1	3	2
4	4	5	7	6
4	8	9	11	10
4	12	13	15	14

CELL_TYPES 4
 9 9 9 9
POINT_DATA 16
VECTORS velocity double
0 0 0
0.0022561 0 0
0 -0.0022561 0
0.00225168 -0.00225168 0
0.0022561 0 0
0 0 0
0.00225168 0.00225168 0
0 0.0022561 0
0 -0.0022561 0
-0.00225169 -0.00225168 0
0 0 0
-0.0022561 0 0
-0.00225169 0.00225168 0
0 0.0022561 0
-0.0022561 0 0
0 0 0
SCALARS pressure double 1
LOOKUP_TABLE default
0.000232983 -0.0012609 1.00086 0.000233005 0.0012609 -0.000232982 -0.000233005 -1.00086 0.998336 0.000233005 0.000232986 0.00126089 -0.000233005 -0.998336 -0.00126089 -0.000232986 
SCALARS global_div_diff double 1
LOOKUP_TABLE default
5.53524e-10 5.53524e-10 5.53524e-10 5.53524e-10 5.54958e-10 5.54958e-10 5.54958e-10 5.54958e-10 5.51256e-10 5.51256e-10 5.51256e-10 5.51256e-10 5.51744e-10 5.51744e-10 5.51744e-10 5.51744e-10 
SCALARS cell_div_diff double 1
LOOKUP_TABLE default
5.53525e-10 5.53525e-10 5.53525e-10 5.53525e-10 5.54959e-10 5.54959e-10 5.54959e-10 5.54959e-10 5.51255e-10 5.51255e-10 5.51255e-10 5.51255e-10 5.51743e-10 5.51743e-10 5.51743e-10 5.51743e-10 
SCALARS global_l2_diff double 1
LOOKUP_TABLE default
0.00057655 0.00057655 0.00057655 0.00057655 0.00057655 0.00057655 0.00057655 0.00057655 0.00057655 0.00057655 0.00057655 0.00057655 0.00057655 0.00057655 0.00057655 0.00057655 
SCALARS global_h1_diff double 1
LOOKUP_TABLE default
0.02696 0.02696 0.02696 0.02696 0.02696 0.02696 0.02696 0.02696 0.02696 0.02696 0.02696 0.02696 0.02696 0.02696 0.02696 0.02696 
