# vtk DataFile Version 3.0
#This file was generated by the deal.II library on 2017/9/21 at 11:19:30
ASCII
DATASET UNSTRUCTURED_GRID

POINTS 4096 double
0 0 0
0.03125 0 0
0 0.03125 0
0.03125 0.03125 0
0.03125 0 0
0.0625 0 0
0.03125 0.03125 0
0.0625 0.03125 0
0 0.03125 0
0.03125 0.03125 0
0 0.0625 0
0.03125 0.0625 0
0.03125 0.03125 0
0.0625 0.03125 0
0.03125 0.0625 0
0.0625 0.0625 0
0.0625 0 0
0.09375 0 0
0.0625 0.03125 0
0.09375 0.03125 0
0.09375 0 0
0.125 0 0
0.09375 0.03125 0
0.125 0.03125 0
0.0625 0.03125 0
0.09375 0.03125 0
0.0625 0.0625 0
0.09375 0.0625 0
0.09375 0.03125 0
0.125 0.03125 0
0.09375 0.0625 0
0.125 0.0625 0
0 0.0625 0
0.03125 0.0625 0
0 0.09375 0
0.03125 0.09375 0
0.03125 0.0625 0
0.0625 0.0625 0
0.03125 0.09375 0
0.0625 0.09375 0
0 0.09375 0
0.03125 0.09375 0
0 0.125 0
0.03125 0.125 0
0.03125 0.09375 0
0.0625 0.09375 0
0.03125 0.125 0
0.0625 0.125 0
0.0625 0.0625 0
0.09375 0.0625 0
0.0625 0.09375 0
0.09375 0.09375 0
0.09375 0.0625 0
0.125 0.0625 0
0.09375 0.09375 0
0.125 0.09375 0
0.0625 0.09375 0
0.09375 0.09375 0
0.0625 0.125 0
0.09375 0.125 0
0.09375 0.09375 0
0.125 0.09375 0
0.09375 0.125 0
0.125 0.125 0
0.125 0 0
0.15625 0 0
0.125 0.03125 0
0.15625 0.03125 0
0.15625 0 0
0.1875 0 0
0.15625 0.03125 0
0.1875 0.03125 0
0.125 0.03125 0
0.15625 0.03125 0
0.125 0.0625 0
0.15625 0.0625 0
0.15625 0.03125 0
0.1875 0.03125 0
0.15625 0.0625 0
0.1875 0.0625 0
0.1875 0 0
0.21875 0 0
0.1875 0.03125 0
0.21875 0.03125 0
0.21875 0 0
0.25 0 0
0.21875 0.03125 0
0.25 0.03125 0
0.1875 0.03125 0
0.21875 0.03125 0
0.1875 0.0625 0
0.21875 0.0625 0
0.21875 0.03125 0
0.25 0.03125 0
0.21875 0.0625 0
0.25 0.0625 0
0.125 0.0625 0
0.15625 0.0625 0
0.125 0.09375 0
0.15625 0.09375 0
0.15625 0.0625 0
0.1875 0.0625 0
0.15625 0.09375 0
0.1875 0.09375 0
0.125 0.09375 0
0.15625 0.09375 0
0.125 0.125 0
0.15625 0.125 0
0.15625 0.09375 0
0.1875 0.09375 0
0.15625 0.125 0
0.1875 0.125 0
0.1875 0.0625 0
0.21875 0.0625 0
0.1875 0.09375 0
0.21875 0.09375 0
0.21875 0.0625 0
0.25 0.0625 0
0.21875 0.09375 0
0.25 0.09375 0
0.1875 0.09375 0
0.21875 0.09375 0
0.1875 0.125 0
0.21875 0.125 0
0.21875 0.09375 0
0.25 0.09375 0
0.21875 0.125 0
0.25 0.125 0
0 0.125 0
0.03125 0.125 0
0 0.15625 0
0.03125 0.15625 0
0.03125 0.125 0
0.0625 0.125 0
0.03125 0.15625 0
0.0625 0.15625 0
0 0.15625 0
0.03125 0.15625 0
0 0.1875 0
0.03125 0.1875 0
0.03125 0.15625 0
0.0625 0.15625 0
0.03125 0.1875 0
0.0625 0.1875 0
0.0625 0.125 0
0.09375 0.125 0
0.0625 0.15625 0
0.09375 0.15625 0
0.09375 0.125 0
0.125 0.125 0
0.09375 0.15625 0
0.125 0.15625 0
0.0625 0.15625 0
0.09375 0.15625 0
0.0625 0.1875 0
0.09375 0.1875 0
0.09375 0.15625 0
0.125 0.15625 0
0.09375 0.1875 0
0.125 0.1875 0
0 0.1875 0
0.03125 0.1875 0
0 0.21875 0
0.03125 0.21875 0
0.03125 0.1875 0
0.0625 0.1875 0
0.03125 0.21875 0
0.0625 0.21875 0
0 0.21875 0
0.03125 0.21875 0
0 0.25 0
0.03125 0.25 0
0.03125 0.21875 0
0.0625 0.21875 0
0.03125 0.25 0
0.0625 0.25 0
0.0625 0.1875 0
0.09375 0.1875 0
0.0625 0.21875 0
0.09375 0.21875 0
0.09375 0.1875 0
0.125 0.1875 0
0.09375 0.21875 0
0.125 0.21875 0
0.0625 0.21875 0
0.09375 0.21875 0
0.0625 0.25 0
0.09375 0.25 0
0.09375 0.21875 0
0.125 0.21875 0
0.09375 0.25 0
0.125 0.25 0
0.125 0.125 0
0.15625 0.125 0
0.125 0.15625 0
0.15625 0.15625 0
0.15625 0.125 0
0.1875 0.125 0
0.15625 0.15625 0
0.1875 0.15625 0
0.125 0.15625 0
0.15625 0.15625 0
0.125 0.1875 0
0.15625 0.1875 0
0.15625 0.15625 0
0.1875 0.15625 0
0.15625 0.1875 0
0.1875 0.1875 0
0.1875 0.125 0
0.21875 0.125 0
0.1875 0.15625 0
0.21875 0.15625 0
0.21875 0.125 0
0.25 0.125 0
0.21875 0.15625 0
0.25 0.15625 0
0.1875 0.15625 0
0.21875 0.15625 0
0.1875 0.1875 0
0.21875 0.1875 0
0.21875 0.15625 0
0.25 0.15625 0
0.21875 0.1875 0
0.25 0.1875 0
0.125 0.1875 0
0.15625 0.1875 0
0.125 0.21875 0
0.15625 0.21875 0
0.15625 0.1875 0
0.1875 0.1875 0
0.15625 0.21875 0
0.1875 0.21875 0
0.125 0.21875 0
0.15625 0.21875 0
0.125 0.25 0
0.15625 0.25 0
0.15625 0.21875 0
0.1875 0.21875 0
0.15625 0.25 0
0.1875 0.25 0
0.1875 0.1875 0
0.21875 0.1875 0
0.1875 0.21875 0
0.21875 0.21875 0
0.21875 0.1875 0
0.25 0.1875 0
0.21875 0.21875 0
0.25 0.21875 0
0.1875 0.21875 0
0.21875 0.21875 0
0.1875 0.25 0
0.21875 0.25 0
0.21875 0.21875 0
0.25 0.21875 0
0.21875 0.25 0
0.25 0.25 0
0.25 0 0
0.28125 0 0
0.25 0.03125 0
0.28125 0.03125 0
0.28125 0 0
0.3125 0 0
0.28125 0.03125 0
0.3125 0.03125 0
0.25 0.03125 0
0.28125 0.03125 0
0.25 0.0625 0
0.28125 0.0625 0
0.28125 0.03125 0
0.3125 0.03125 0
0.28125 0.0625 0
0.3125 0.0625 0
0.3125 0 0
0.34375 0 0
0.3125 0.03125 0
0.34375 0.03125 0
0.34375 0 0
0.375 0 0
0.34375 0.03125 0
0.375 0.03125 0
0.3125 0.03125 0
0.34375 0.03125 0
0.3125 0.0625 0
0.34375 0.0625 0
0.34375 0.03125 0
0.375 0.03125 0
0.34375 0.0625 0
0.375 0.0625 0
0.25 0.0625 0
0.28125 0.0625 0
0.25 0.09375 0
0.28125 0.09375 0
0.28125 0.0625 0
0.3125 0.0625 0
0.28125 0.09375 0
0.3125 0.09375 0
0.25 0.09375 0
0.28125 0.09375 0
0.25 0.125 0
0.28125 0.125 0
0.28125 0.09375 0
0.3125 0.09375 0
0.28125 0.125 0
0.3125 0.125 0
0.3125 0.0625 0
0.34375 0.0625 0
0.3125 0.09375 0
0.34375 0.09375 0
0.34375 0.0625 0
0.375 0.0625 0
0.34375 0.09375 0
0.375 0.09375 0
0.3125 0.09375 0
0.34375 0.09375 0
0.3125 0.125 0
0.34375 0.125 0
0.34375 0.09375 0
0.375 0.09375 0
0.34375 0.125 0
0.375 0.125 0
0.375 0 0
0.40625 0 0
0.375 0.03125 0
0.40625 0.03125 0
0.40625 0 0
0.4375 0 0
0.40625 0.03125 0
0.4375 0.03125 0
0.375 0.03125 0
0.40625 0.03125 0
0.375 0.0625 0
0.40625 0.0625 0
0.40625 0.03125 0
0.4375 0.03125 0
0.40625 0.0625 0
0.4375 0.0625 0
0.4375 0 0
0.46875 0 0
0.4375 0.03125 0
0.46875 0.03125 0
0.46875 0 0
0.5 0 0
0.46875 0.03125 0
0.5 0.03125 0
0.4375 0.03125 0
0.46875 0.03125 0
0.4375 0.0625 0
0.46875 0.0625 0
0.46875 0.03125 0
0.5 0.03125 0
0.46875 0.0625 0
0.5 0.0625 0
0.375 0.0625 0
0.40625 0.0625 0
0.375 0.09375 0
0.40625 0.09375 0
0.40625 0.0625 0
0.4375 0.0625 0
0.40625 0.09375 0
0.4375 0.09375 0
0.375 0.09375 0
0.40625 0.09375 0
0.375 0.125 0
0.40625 0.125 0
0.40625 0.09375 0
0.4375 0.09375 0
0.40625 0.125 0
0.4375 0.125 0
0.4375 0.0625 0
0.46875 0.0625 0
0.4375 0.09375 0
0.46875 0.09375 0
0.46875 0.0625 0
0.5 0.0625 0
0.46875 0.09375 0
0.5 0.09375 0
0.4375 0.09375 0
0.46875 0.09375 0
0.4375 0.125 0
0.46875 0.125 0
0.46875 0.09375 0
0.5 0.09375 0
0.46875 0.125 0
0.5 0.125 0
0.25 0.125 0
0.28125 0.125 0
0.25 0.15625 0
0.28125 0.15625 0
0.28125 0.125 0
0.3125 0.125 0
0.28125 0.15625 0
0.3125 0.15625 0
0.25 0.15625 0
0.28125 0.15625 0
0.25 0.1875 0
0.28125 0.1875 0
0.28125 0.15625 0
0.3125 0.15625 0
0.28125 0.1875 0
0.3125 0.1875 0
0.3125 0.125 0
0.34375 0.125 0
0.3125 0.15625 0
0.34375 0.15625 0
0.34375 0.125 0
0.375 0.125 0
0.34375 0.15625 0
0.375 0.15625 0
0.3125 0.15625 0
0.34375 0.15625 0
0.3125 0.1875 0
0.34375 0.1875 0
0.34375 0.15625 0
0.375 0.15625 0
0.34375 0.1875 0
0.375 0.1875 0
0.25 0.1875 0
0.28125 0.1875 0
0.25 0.21875 0
0.28125 0.21875 0
0.28125 0.1875 0
0.3125 0.1875 0
0.28125 0.21875 0
0.3125 0.21875 0
0.25 0.21875 0
0.28125 0.21875 0
0.25 0.25 0
0.28125 0.25 0
0.28125 0.21875 0
0.3125 0.21875 0
0.28125 0.25 0
0.3125 0.25 0
0.3125 0.1875 0
0.34375 0.1875 0
0.3125 0.21875 0
0.34375 0.21875 0
0.34375 0.1875 0
0.375 0.1875 0
0.34375 0.21875 0
0.375 0.21875 0
0.3125 0.21875 0
0.34375 0.21875 0
0.3125 0.25 0
0.34375 0.25 0
0.34375 0.21875 0
0.375 0.21875 0
0.34375 0.25 0
0.375 0.25 0
0.375 0.125 0
0.40625 0.125 0
0.375 0.15625 0
0.40625 0.15625 0
0.40625 0.125 0
0.4375 0.125 0
0.40625 0.15625 0
0.4375 0.15625 0
0.375 0.15625 0
0.40625 0.15625 0
0.375 0.1875 0
0.40625 0.1875 0
0.40625 0.15625 0
0.4375 0.15625 0
0.40625 0.1875 0
0.4375 0.1875 0
0.4375 0.125 0
0.46875 0.125 0
0.4375 0.15625 0
0.46875 0.15625 0
0.46875 0.125 0
0.5 0.125 0
0.46875 0.15625 0
0.5 0.15625 0
0.4375 0.15625 0
0.46875 0.15625 0
0.4375 0.1875 0
0.46875 0.1875 0
0.46875 0.15625 0
0.5 0.15625 0
0.46875 0.1875 0
0.5 0.1875 0
0.375 0.1875 0
0.40625 0.1875 0
0.375 0.21875 0
0.40625 0.21875 0
0.40625 0.1875 0
0.4375 0.1875 0
0.40625 0.21875 0
0.4375 0.21875 0
0.375 0.21875 0
0.40625 0.21875 0
0.375 0.25 0
0.40625 0.25 0
0.40625 0.21875 0
0.4375 0.21875 0
0.40625 0.25 0
0.4375 0.25 0
0.4375 0.1875 0
0.46875 0.1875 0
0.4375 0.21875 0
0.46875 0.21875 0
0.46875 0.1875 0
0.5 0.1875 0
0.46875 0.21875 0
0.5 0.21875 0
0.4375 0.21875 0
0.46875 0.21875 0
0.4375 0.25 0
0.46875 0.25 0
0.46875 0.21875 0
0.5 0.21875 0
0.46875 0.25 0
0.5 0.25 0
0 0.25 0
0.03125 0.25 0
0 0.28125 0
0.03125 0.28125 0
0.03125 0.25 0
0.0625 0.25 0
0.03125 0.28125 0
0.0625 0.28125 0
0 0.28125 0
0.03125 0.28125 0
0 0.3125 0
0.03125 0.3125 0
0.03125 0.28125 0
0.0625 0.28125 0
0.03125 0.3125 0
0.0625 0.3125 0
0.0625 0.25 0
0.09375 0.25 0
0.0625 0.28125 0
0.09375 0.28125 0
0.09375 0.25 0
0.125 0.25 0
0.09375 0.28125 0
0.125 0.28125 0
0.0625 0.28125 0
0.09375 0.28125 0
0.0625 0.3125 0
0.09375 0.3125 0
0.09375 0.28125 0
0.125 0.28125 0
0.09375 0.3125 0
0.125 0.3125 0
0 0.3125 0
0.03125 0.3125 0
0 0.34375 0
0.03125 0.34375 0
0.03125 0.3125 0
0.0625 0.3125 0
0.03125 0.34375 0
0.0625 0.34375 0
0 0.34375 0
0.03125 0.34375 0
0 0.375 0
0.03125 0.375 0
0.03125 0.34375 0
0.0625 0.34375 0
0.03125 0.375 0
0.0625 0.375 0
0.0625 0.3125 0
0.09375 0.3125 0
0.0625 0.34375 0
0.09375 0.34375 0
0.09375 0.3125 0
0.125 0.3125 0
0.09375 0.34375 0
0.125 0.34375 0
0.0625 0.34375 0
0.09375 0.34375 0
0.0625 0.375 0
0.09375 0.375 0
0.09375 0.34375 0
0.125 0.34375 0
0.09375 0.375 0
0.125 0.375 0
0.125 0.25 0
0.15625 0.25 0
0.125 0.28125 0
0.15625 0.28125 0
0.15625 0.25 0
0.1875 0.25 0
0.15625 0.28125 0
0.1875 0.28125 0
0.125 0.28125 0
0.15625 0.28125 0
0.125 0.3125 0
0.15625 0.3125 0
0.15625 0.28125 0
0.1875 0.28125 0
0.15625 0.3125 0
0.1875 0.3125 0
0.1875 0.25 0
0.21875 0.25 0
0.1875 0.28125 0
0.21875 0.28125 0
0.21875 0.25 0
0.25 0.25 0
0.21875 0.28125 0
0.25 0.28125 0
0.1875 0.28125 0
0.21875 0.28125 0
0.1875 0.3125 0
0.21875 0.3125 0
0.21875 0.28125 0
0.25 0.28125 0
0.21875 0.3125 0
0.25 0.3125 0
0.125 0.3125 0
0.15625 0.3125 0
0.125 0.34375 0
0.15625 0.34375 0
0.15625 0.3125 0
0.1875 0.3125 0
0.15625 0.34375 0
0.1875 0.34375 0
0.125 0.34375 0
[...]
POINT_DATA 4096
VECTORS velocity double
0 0 0
5.23383e-06 0 0
0 -5.23385e-06 0
0.00590826 -0.00590826 0
5.23383e-06 0 0
1.90446e-05 0 0
0.00590826 -0.00591477 0
0.0233822 -0.011573 0
0 -5.23385e-06 0
0.00591477 -0.00590826 0
0 -1.90445e-05 0
0.011573 -0.0233822 0
0.00591477 -0.00591477 0
0.0234101 -0.011573 0
0.011573 -0.0234101 0
0.0458285 -0.0458285 0
1.90446e-05 0 0
3.86322e-05 0 0
0.0233822 -0.0115792 0
0.0517294 -0.0167876 0
3.86322e-05 0 0
6.34504e-05 0 0
0.0517294 -0.0167934 0
0.089855 -0.021357 0
0.0234101 -0.0115792 0
0.051793 -0.0167876 0
0.0458285 -0.0458551 0
0.10143 -0.0664966 0
0.051793 -0.0167934 0
0.0899669 -0.021357 0
0.10143 -0.0665209 0
0.176234 -0.0846068 0
0 -1.90445e-05 0
0.0115792 -0.0233822 0
0 -3.86323e-05 0
0.0167876 -0.0517294 0
0.0115792 -0.0234101 0
0.0458551 -0.0458285 0
0.0167876 -0.051793 0
0.0664966 -0.10143 0
0 -3.86323e-05 0
0.0167934 -0.0517294 0
0 -6.34502e-05 0
0.021357 -0.089855 0
0.0167934 -0.051793 0
0.0665209 -0.10143 0
0.021357 -0.0899669 0
0.0846068 -0.176234 0
0.0458551 -0.0458551 0
0.101491 -0.0664966 0
0.0664966 -0.101491 0
0.147205 -0.147205 0
0.101491 -0.0665209 0
0.176339 -0.0846068 0
0.147205 -0.14726 0
0.255806 -0.187317 0
0.0665209 -0.101491 0
0.14726 -0.147205 0
0.0846068 -0.176339 0
0.187317 -0.255806 0
0.14726 -0.14726 0
0.255901 -0.187317 0
0.187317 -0.255901 0
0.325538 -0.325538 0
6.34504e-05 0 0
9.28869e-05 0 0
0.089855 -0.021362 0
0.136294 -0.0251068 0
9.28869e-05 0 0
0.000126041 0 0
0.136294 -0.0251108 0
0.189265 -0.0278933 0
0.0899669 -0.021362 0
0.136465 -0.0251068 0
0.176234 -0.0846276 0
0.267363 -0.0994684 0
0.136465 -0.0251108 0
0.189503 -0.0278933 0
0.267363 -0.0994848 0
0.371317 -0.110512 0
0.000126041 0 0
0.000161784 0 0
0.189265 -0.027896 0
0.246735 -0.0296091 0
0.000161784 0 0
0.000198834 0 0
0.246735 -0.0296105 0
0.306496 -0.030188 0
0.189503 -0.027896 0
0.247046 -0.0296091 0
0.371317 -0.110523 0
0.484104 -0.117312 0
0.247046 -0.0296105 0
0.306883 -0.030188 0
0.484104 -0.117317 0
0.601392 -0.119607 0
0.176339 -0.0846276 0
0.267524 -0.0994684 0
0.255806 -0.187364 0
0.388122 -0.220233 0
0.267524 -0.0994848 0
0.371541 -0.110512 0
0.388122 -0.22027 0
0.53907 -0.244692 0
0.255901 -0.187364 0
0.388267 -0.220233 0
0.325538 -0.325619 0
0.493955 -0.382761 0
0.388267 -0.22027 0
0.539272 -0.244692 0
0.493955 -0.382825 0
0.686097 -0.425283 0
0.371541 -0.110523 0
0.484397 -0.117312 0
0.53907 -0.244717 0
0.70285 -0.259753 0
0.484397 -0.117317 0
0.601757 -0.119607 0
0.70285 -0.259766 0
0.87317 -0.264838 0
0.539272 -0.244717 0
0.703114 -0.259753 0
0.686097 -0.425327 0
0.894579 -0.451468 0
0.703114 -0.259766 0
0.873498 -0.264838 0
0.894579 -0.451491 0
1.11139 -0.460311 0
0 -6.34502e-05 0
0.021362 -0.089855 0
0 -9.28869e-05 0
0.0251068 -0.136294 0
0.021362 -0.0899669 0
0.0846276 -0.176234 0
0.0251068 -0.136465 0
0.0994684 -0.267363 0
0 -9.28869e-05 0
0.0251108 -0.136294 0
0 -0.000126041 0
0.0278933 -0.189265 0
0.0251108 -0.136465 0
0.0994848 -0.267363 0
0.0278933 -0.189503 0
0.110512 -0.371317 0
0.0846276 -0.176339 0
0.187364 -0.255806 0
0.0994684 -0.267524 0
0.220233 -0.388122 0
0.187364 -0.255901 0
0.325619 -0.325538 0
0.220233 -0.388267 0
0.382761 -0.493955 0
0.0994848 -0.267524 0
0.22027 -0.388122 0
0.110512 -0.371541 0
0.244692 -0.53907 0
0.22027 -0.388267 0
0.382825 -0.493955 0
0.244692 -0.539272 0
0.425283 -0.686097 0
0 -0.000126041 0
0.027896 -0.189265 0
0 -0.000161784 0
0.0296091 -0.246735 0
0.027896 -0.189503 0
0.110523 -0.371317 0
0.0296091 -0.247046 0
0.117312 -0.484104 0
0 -0.000161784 0
0.0296105 -0.246735 0
0 -0.000198834 0
0.030188 -0.306496 0
0.0296105 -0.247046 0
0.117317 -0.484104 0
0.030188 -0.306883 0
0.119607 -0.601392 0
0.110523 -0.371541 0
0.244717 -0.53907 0
0.117312 -0.484397 0
0.259753 -0.70285 0
0.244717 -0.539272 0
0.425327 -0.686097 0
0.259753 -0.703114 0
0.451468 -0.894579 0
0.117317 -0.484397 0
0.259766 -0.70285 0
0.119607 -0.601757 0
0.264838 -0.87317 0
0.259766 -0.703114 0
0.451491 -0.894579 0
0.264838 -0.873498 0
0.460311 -1.11139 0
0.325619 -0.325619 0
0.494079 -0.382761 0
0.382761 -0.494079 0
0.580807 -0.580807 0
0.494079 -0.382825 0
0.686269 -0.425283 0
0.580807 -0.580904 0
0.806758 -0.645345 0
0.382825 -0.494079 0
0.580904 -0.580807 0
0.425283 -0.686269 0
0.645345 -0.806758 0
0.580904 -0.580904 0
0.806893 -0.645345 0
0.645345 -0.806893 0
0.896422 -0.896422 0
0.686269 -0.425327 0
0.894804 -0.451468 0
0.806758 -0.645412 0
1.05193 -0.685091 0
0.894804 -0.451491 0
1.11167 -0.460311 0
1.05193 -0.685125 0
1.3069 -0.698516 0
0.806893 -0.645412 0
1.05211 -0.685091 0
0.896422 -0.896515 0
1.16886 -0.951644 0
1.05211 -0.685125 0
1.30712 -0.698516 0
1.16886 -0.951692 0
1.4522 -0.970301 0
0.425327 -0.686269 0
0.645412 -0.806758 0
0.451468 -0.894804 0
0.685091 -1.05193 0
0.645412 -0.806893 0
0.896515 -0.896422 0
0.685091 -1.05211 0
0.951644 -1.16886 0
0.451491 -0.894804 0
0.685125 -1.05193 0
0.460311 -1.11167 0
0.698516 -1.3069 0
0.685125 -1.05211 0
0.951692 -1.16886 0
0.698516 -1.30712 0
0.970301 -1.4522 0
0.896515 -0.896515 0
1.16899 -0.951644 0
0.951644 -1.16899 0
1.24088 -1.24088 0
1.16899 -0.951692 0
1.45235 -0.970301 0
1.24088 -1.24094 0
1.54169 -1.26522 0
0.951692 -1.16899 0
1.24094 -1.24088 0
0.970301 -1.45235 0
1.26522 -1.54169 0
1.24094 -1.24094 0
1.54177 -1.26522 0
1.26522 -1.54177 0
1.57194 -1.57194 0
0.000198834 0 0
0.000235821 0 0
0.306496 -0.030188 0
0.366255 -0.0296076 0
0.000235821 0 0
0.000271357 0 0
0.366255 -0.0296062 0
0.423715 -0.0278899 0
0.306883 -0.030188 0
0.366718 -0.0296076 0
0.601392 -0.119607 0
0.718677 -0.117308 0
0.366718 -0.0296062 0
0.424251 -0.0278899 0
0.718677 -0.117302 0
0.831452 -0.110502 0
0.000271357 0 0
0.000304093 0 0
0.423715 -0.0278871 0
0.47667 -0.0251006 0
0.000304093 0 0
0.000332782 0 0
0.47667 -0.0250967 0
0.523085 -0.021347 0
0.424251 -0.0278871 0
0.477274 -0.0251006 0
0.831452 -0.110491 0
0.935384 -0.0994516 0
0.477274 -0.0250967 0
0.523748 -0.021347 0
0.935384 -0.0994352 0
1.02648 -0.0845796 0
0.601757 -0.119607 0
0.719113 -0.117308 0
0.87317 -0.264838 0
1.04349 -0.259749 0
0.719113 -0.117302 0
0.831957 -0.110502 0
1.04349 -0.259736 0
1.20726 -0.244681 0
0.873498 -0.264838 0
1.04388 -0.259749 0
1.11139 -0.460311 0
1.3282 -0.451469 0
1.04388 -0.259736 0
1.20771 -0.244681 0
1.3282 -0.451446 0
1.53668 -0.425281 0
0.831957 -0.110491 0
0.935953 -0.0994516 0
1.20726 -0.244656 0
1.35819 -0.220213 0
0.935953 -0.0994352 0
1.02711 -0.0845796 0
1.35819 -0.220176 0
1.49048 -0.187282 0
1.20771 -0.244656 0
1.3587 -0.220213 0
1.53668 -0.425237 0
1.72881 -0.382753 0
1.3587 -0.220176 0
1.49104 -0.187282 0
1.72881 -0.382689 0
1.89722 -0.325517 0
0.000332782 0 0
0.000356325 0 0
0.523085 -0.021342 0
0.561177 -0.0167732 0
0.000356325 0 0
0.000373819 0 0
0.561177 -0.0167673 0
0.589482 -0.0115548 0
0.523748 -0.021342 0
0.561888 -0.0167732 0
1.02648 -0.0845587 0
1.10124 -0.0664577 0
0.561888 -0.0167673 0
0.590228 -0.0115548 0
1.10124 -0.066433 0
1.15679 -0.0457819 0
0.000373819 0 0
0.000384592 0 0
0.589482 -0.0115482 0
0.606911 -0.00589239 0
0.000384592 0 0
0.00038823 0 0
0.606911 -0.00588542 0
0.612797 -3.55114e-06 0
0.590228 -0.0115482 0
0.60768 -0.00589239 0
1.15679 -0.0457546 0
1.191 -0.023347 0
0.60768 -0.00588542 0
0.613573 -3.55114e-06 0
1.191 -0.0233179 0
1.20255 -1.47961e-05 0
1.02711 -0.0845587 0
1.10191 -0.0664577 0
1.49048 -0.187236 0
1.59905 -0.147156 0
1.10191 -0.066433 0
1.1575 -0.0457819 0
1.59905 -0.147101 0
1.67972 -0.101374 0
1.49104 -0.187236 0
1.59965 -0.147156 0
1.89722 -0.325436 0
2.03543 -0.255773 0
1.59965 -0.147101 0
1.68035 -0.101374 0
2.03543 -0.255677 0
2.13813 -0.176199 0
1.1575 -0.0457546 0
1.19173 -0.023347 0
1.67972 -0.101313 0
1.7294 -0.0516968 0
1.19173 -0.0233179 0
1.20329 -1.47961e-05 0
1.7294 -0.051632 0
1.74617 -3.30711e-05 0
1.68035 -0.101313 0
1.73005 -0.0516968 0
2.13813 -0.176093 0
2.20137 -0.0898551 0
1.73005 -0.051632 0
1.74683 -3.30711e-05 0
2.20137 -0.0897419 0
2.22272 -5.76695e-05 0
1.11167 -0.460311 0
1.32854 -0.451469 0
1.3069 -0.698516 0
1.56188 -0.685103 0
1.32854 -0.451446 0
1.53707 -0.425281 0
1.56188 -0.685069 0
1.80706 -0.645366 0
1.30712 -0.698516 0
1.56214 -0.685103 0
1.4522 -0.970301 0
1.73554 -0.951675 0
1.56214 -0.685069 0
1.80736 -0.645366 0
1.73554 -0.951628 0
2.00799 -0.89648 0
1.53707 -0.425237 0
1.72925 -0.382753 0
1.80706 -0.645299 0
2.03301 -0.580831 0
1.72925 -0.382689 0
1.8977 -0.325517 0
2.03301 -0.580734 0
2.23107 -0.493976 0
1.80736 -0.645299 0
2.03336 -0.580831 0
2.00799 -0.896387 0
2.25909 -0.806836 0
2.03336 -0.580734 0
2.23144 -0.493976 0
2.25909 -0.806701 0
2.47918 -0.686186 0
1.45235 -0.970301 0
1.73572 -0.951675 0
1.54169 -1.26522 0
1.8425 -1.24094 0
1.73572 -0.951628 0
2.0082 -0.89648 0
1.8425 -1.24088 0
2.13176 -1.16897 0
1.54177 -1.26522 0
1.8426 -1.24094 0
1.57194 -1.57194 0
1.87866 -1.54178 0
1.8426 -1.24088 0
2.13187 -1.16897 0
1.87866 -1.5417 0
2.17361 -1.45237 0
2.0082 -0.896387 0
2.25933 -0.806836 0
2.13176 -1.16885 0
2.39835 -1.05208 0
2.25933 -0.806701 0
2.47944 -0.686186 0
2.39835 -1.05191 0
2.63202 -0.894761 0
2.13187 -1.16885 0
2.39847 -1.05208 0
2.17361 -1.45222 0
2.44544 -1.30714 0
2.39847 -1.05191 0
2.63215 -0.894761 0
2.44544 -1.30692 0
2.6837 -1.11168 0
1.8977 -0.325436 0
2.03594 -0.255773 0
2.23107 -0.493852 0
2.39361 -0.388138 0
2.03594 -0.255677 0
2.13867 -0.176199 0
2.39361 -0.387993 0
2.51439 -0.267385 0
2.23144 -0.493852 0
2.39401 -0.388138 0
2.47918 -0.686014 0
2.6598 -0.539167 0
2.39401 -0.387993 0
2.51481 -0.267385 0
2.6598 -0.538965 0
2.79402 -0.371428 0
2.13867 -0.176093 0
2.20192 -0.0898551 0
2.51439 -0.267223 0
2.58876 -0.136356 0
2.20192 -0.0897419 0
2.22328 -5.76695e-05 0
2.58876 -0.136185 0
2.61387 -8.76473e-05 0
2.51481 -0.267223 0
2.5892 -0.136356 0
2.79402 -0.371203 0
2.87667 -0.189415 0
2.5892 -0.136185 0
2.61431 -8.76473e-05 0
2.87667 -0.189175 0
2.90458 -0.000121853 0
2.47944 -0.686014 0
2.66008 -0.539167 0
2.63202 -0.894536 0
2.82378 -0.703055 0
2.66008 -0.538965 0
2.79431 -0.371428 0
2.82378 -0.70279 0
2.96628 -0.484329 0
2.63215 -0.894536 0
2.82392 -0.703055 0
2.6837 -1.1114 0
2.87923 -0.873501 0
2.82392 -0.70279 0
2.96643 -0.484329 0
2.87923 -0.873173 0
3.02453 -0.601749 0
2.79431 -0.371203 0
2.87697 -0.189415 0
2.96628 -0.484035 0
3.05403 -0.24699 0
2.87697 -0.189175 0
2.90488 -0.000121853 0
3.05403 -0.246678 0
3.08366 -0.000158972 0
2.96643 -0.484035 0
3.05418 -0.24699 0
3.02453 -0.601384 0
3.11401 -0.30687 0
3.05418 -0.246678 0
3.08381 -0.000158972 0
3.11401 -0.306482 0
3.14422 -0.000197578 0
0 -0.000198834 0
0.030188 -0.306496 0
0 -0.000235821 0
0.0296076 -0.366255 0
0.030188 -0.306883 0
0.119607 -0.601392 0
0.0296076 -0.366718 0
0.117308 -0.718677 0
0 -0.000235821 0
0.0296062 -0.366255 0
0 -0.000271357 0
0.0278899 -0.423715 0
0.0296062 -0.366718 0
0.117302 -0.718677 0
0.0278899 -0.424251 0
0.110502 -0.831452 0
0.119607 -0.601757 0
0.264838 -0.87317 0
0.117308 -0.719113 0
0.259749 -1.04349 0
0.264838 -0.873498 0
0.460311 -1.11139 0
0.259749 -1.04388 0
0.451469 -1.3282 0
0.117302 -0.719113 0
0.259736 -1.04349 0
0.110502 -0.831957 0
0.244681 -1.20726 0
0.259736 -1.04388 0
0.451446 -1.3282 0
0.244681 -1.20771 0
0.425281 -1.53668 0
0 -0.000271357 0
0.0278871 -0.423715 0
0 -0.000304093 0
0.0251006 -0.47667 0
0.0278871 -0.424251 0
0.110491 -0.831452 0
0.0251006 -0.477274 0
0.0994516 -0.935384 0
0 -0.000304093 0
0.0250967 -0.47667 0
0 -0.000332782 0
0.021347 -0.523085 0
0.0250967 -0.477274 0
0.0994352 -0.935384 0
0.021347 -0.523748 0
0.0845796 -1.02648 0
0.110491 -0.831957 0
0.244656 -1.20726 0
0.0994516 -0.935953 0
0.220213 -1.35819 0
0.244656 -1.20771 0
0.425237 -1.53668 0
0.220213 -1.3587 0
0.382753 -1.72881 0
0.0994352 -0.935953 0
0.220176 -1.35819 0
0.0845796 -1.02711 0
0.187282 -1.49048 0
0.220176 -1.3587 0
0.382689 -1.72881 0
0.187282 -1.49104 0
0.325517 -1.89722 0
0.460311 -1.11167 0
0.698516 -1.3069 0
0.451469 -1.32854 0
0.685103 -1.56188 0
0.698516 -1.30712 0
0.970301 -1.4522 0
0.685103 -1.56214 0
0.951675 -1.73554 0
0.451446 -1.32854 0
0.685069 -1.56188 0
0.425281 -1.53707 0
0.645366 -1.80706 0
0.685069 -1.56214 0
0.951628 -1.73554 0
0.645366 -1.80736 0
0.89648 -2.00799 0
0.970301 -1.45235 0
1.26522 -1.54169 0
0.951675 -1.73572 0
1.24094 -1.8425 0
1.26522 -1.54177 0
1.57194 -1.57194 0
1.24094 -1.8426 0
1.54178 -1.87866 0
0.951628 -1.73572 0
1.24088 -1.8425 0
0.89648 -2.0082 0
1.16897 -2.13176 0
1.24088 -1.8426 0
1.5417 -1.87866 0
1.16897 -2.13187 0
1.45237 -2.17361 0
0.425237 -1.53707 0
0.645299 -1.80706 0
0.382753 -1.72925 0
0.580831 -2.03301 0
0.645299 -1.80736 0
0.896387 -2.00799 0
0.580831 -2.03336 0
0.806836 -2.25909 0
0.382689 -1.72925 0
0.580734 -2.03301 0
0.325517 -1.8977 0
0.493976 -2.23107 0
0.580734 -2.03336 0
0.806701 -2.25909 0
0.493976 -2.23144 0
0.686186 -2.47918 0
0.896387 -2.0082 0
1.16885 -2.13176 0
0.806836 -2.25933 0
1.05208 -2.39835 0
1.16885 -2.13187 0
1.45222 -2.17361 0
1.05208 -2.39847 0
1.30714 -2.44544 0
0.806701 -2.25933 0
1.05191 -2.39835 0
0.686186 -2.47944 0
0.894761 -2.63202 0
1.05191 -2.39847 0
1.30692 -2.44544 0
0.894761 -2.63215 0
1.11168 -2.6837 0
0 -0.000332782 0
0.021342 -0.523085 0
0 -0.000356325 0
0.0167732 -0.561177 0
0.021342 -0.523748 0
0.0845587 -1.02648 0
0.0167732 -0.561888 0
0.0664577 -1.10124 0
0 -0.000356325 0
0.0167673 -0.561177 0
0 -0.000373819 0
0.0115548 -0.589482 0
0.0167673 -0.561888 0
0.066433 -1.10124 0
0.0115548 -0.590228 0
0.0457819 -1.15679 0
0.0845587 -1.02711 0
0.187236 -1.49048 0
0.0664577 -1.10191 0
0.147156 -1.59905 0
0.187236 -1.49104 0
0.325436 -1.89722 0
0.147156 -1.59965 0
0.255773 -2.03543 0
0.066433 -1.10191 0
0.147101 -1.59905 0
0.0457819 -1.1575 0
0.101374 -1.67972 0
0.147101 -1.59965 0
0.255677 -2.03543 0
0.101374 -1.68035 0
0.176199 -2.13813 0
0 -0.000373819 0
0.0115482 -0.589482 0
0 -0.000384592 0
0.00589239 -0.606911 0
0.0115482 -0.590228 0
0.0457546 -1.15679 0
0.00589239 -0.60768 0
0.023347 -1.191 0
0 -0.000384592 0
0.00588542 -0.606911 0
0 -0.00038823 0
3.55115e-06 -0.612797 0
0.00588542 -0.60768 0
0.0233179 -1.191 0
3.55115e-06 -0.613573 0
1.47961e-05 -1.20255 0
0.0457546 -1.1575 0
0.101313 -1.67972 0
0.023347 -1.19173 0
0.0516968 -1.7294 0
0.101313 -1.68035 0
0.176093 -2.13813 0
0.0516968 -1.73005 0
0.0898551 -2.20137 0
0.0233179 -1.19173 0
0.051632 -1.7294 0
1.47961e-05 -1.20329 0
3.30711e-05 -1.74617 0
0.051632 -1.73005 0
0.0897419 -2.20137 0
3.30711e-05 -1.74683 0
5.76695e-05 -2.22272 0
0.325436 -1.8977 0
0.493852 -2.23107 0
0.255773 -2.03594 0
0.388138 -2.39361 0
0.493852 -2.23144 0
0.686014 -2.47918 0
0.388138 -2.39401 0
0.539167 -2.6598 0
0.255677 -2.03594 0
0.387993 -2.39361 0
0.176199 -2.13867 0
0.267385 -2.51439 0
0.387993 -2.39401 0
0.538965 -2.6598 0
0.267385 -2.51481 0
0.371428 -2.79402 0
0.686014 -2.47944 0
0.894536 -2.63202 0
0.539167 -2.66008 0
0.703055 -2.82378 0
0.894536 -2.63215 0
1.1114 -2.6837 0
0.703055 -2.82392 0
0.873501 -2.87923 0
0.538965 -2.66008 0
0.70279 -2.82378 0
0.371428 -2.79431 0
0.484329 -2.96628 0
0.70279 -2.82392 0
0.873173 -2.87923 0
0.484329 -2.96643 0
0.601749 -3.02453 0
0.176093 -2.13867 0
0.267223 -2.51439 0
0.0898551 -2.20192 0
0.136356 -2.58876 0
0.267223 -2.51481 0
0.371203 -2.79402 0
0.136356 -2.5892 0
0.189415 -2.87667 0
0.0897419 -2.20192 0
0.136185 -2.58876 0
5.76695e-05 -2.22328 0
8.76473e-05 -2.61387 0
0.136185 -2.5892 0
0.189175 -2.87667 0
8.76473e-05 -2.61431 0
0.000121853 -2.90458 0
0.371203 -2.79431 0
0.484035 -2.96628 0
0.189415 -2.87697 0
0.24699 -3.05403 0
0.484035 -2.96643 0
0.601384 -3.02453 0
0.24699 -3.05418 0
0.30687 -3.11401 0
0.189175 -2.87697 0
0.246678 -3.05403 0
0.000121853 -2.90488 0
0.000158972 -3.08366 0
0.246678 -3.05418 0
0.306482 -3.11401 0
0.000158972 -3.08381 0
0.000197578 -3.14422 0
1.57194 -1.57194 0
1.87866 -1.54178 0
1.54178 -1.87866 0
1.84263 -1.84263 0
1.87866 -1.5417 0
2.17361 -1.45237 0
1.84263 -1.84253 0
2.13192 -1.73577 0
1.5417 -1.87866 0
1.84253 -1.84263 0
1.45237 -2.17361 0
1.73577 -2.13192 0
1.84253 -1.84253 0
2.13181 -1.73577 0
1.73577 -2.13181 0
2.0083 -2.0083 0
2.17361 -1.45222 0
2.44544 -1.30714 0
2.13192 -1.73559 0
2.39854 -1.56221 0
2.44544 -1.30692 0
2.6837 -1.11168 0
2.39854 -1.56195 0
2.63224 -1.32861 0
2.13181 -1.73559 0
2.39842 -1.56221 0
2.0083 -2.00809 0
2.25946 -1.80749 0
2.39842 -1.56195 0
2.6321 -1.32861 0
2.25946 -1.80719 0
2.47961 -1.53722 0
1.45222 -2.17361 0
1.73559 -2.13192 0
1.30714 -2.44544 0
1.56221 -2.39854 0
1.73559 -2.13181 0
2.00809 -2.0083 0
1.56221 -2.39842 0
1.80749 -2.25946 0
1.30692 -2.44544 0
1.56195 -2.39854 0
1.11168 -2.6837 0
1.32861 -2.63224 0
1.56195 -2.39842 0
1.80719 -2.25946 0
1.32861 -2.6321 0
1.53722 -2.47961 0
2.00809 -2.00809 0
2.25922 -1.80749 0
1.80749 -2.25922 0
2.03354 -2.03354 0
2.25922 -1.80719 0
2.47935 -1.53722 0
2.03354 -2.0332 0
2.23168 -1.72947 0
1.80719 -2.25922 0
2.0332 -2.03354 0
1.53722 -2.47935 0
1.72947 -2.23168 0
2.0332 -2.0332 0
2.23131 -1.72947 0
1.72947 -2.23131 0
1.89798 -1.89798 0
2.6837 -1.1114 0
2.87923 -0.873501 0
2.63224 -1.32828 0
2.82403 -1.04395 0
2.87923 -0.873173 0
3.02453 -0.601749 0
2.82403 -1.04356 0
2.96654 -0.719173 0
2.6321 -1.32828 0
2.82389 -1.04395 0
2.47961 -1.53683 0
2.66028 -1.20786 0
2.82389 -1.04356 0
2.9664 -0.719173 0
2.66028 -1.20741 0
2.79454 -0.832089 0
3.02453 -0.601384 0
3.11401 -0.30687 0
2.96654 -0.718737 0
3.05431 -0.366752 0
3.11401 -0.306482 0
3.14422 -0.000197578 0
3.05431 -0.366289 0
3.08394 -0.000236187 0
2.9664 -0.718737 0
3.05415 -0.366752 0
2.79454 -0.831584 0
2.87721 -0.424336 0
3.05415 -0.366289 0
3.08378 -0.000236187 0
2.87721 -0.4238 0
2.90513 -0.000273314 0
2.47935 -1.53683 0
2.66001 -1.20786 0
2.23168 -1.72903 0
2.39429 -1.35893 0
2.66001 -1.20741 0
2.79425 -0.832089 0
2.39429 -1.35842 0
2.51513 -0.936156 0
2.23131 -1.72903 0
2.39389 -1.35893 0
1.89798 -1.89751 0
2.03628 -1.49134 0
2.39389 -1.35842 0
2.5147 -0.936156 0
2.03628 -1.49078 0
2.13905 -1.02737 0
2.79425 -0.831584 0
2.87691 -0.424336 0
2.51513 -0.935588 0
2.58953 -0.477406 0
2.87691 -0.4238 0
2.90482 -0.000273314 0
2.58953 -0.476803 0
2.61466 -0.000307533 0
2.5147 -0.935588 0
2.5891 -0.477406 0
2.13905 -1.02675 0
2.20233 -0.523924 0
2.5891 -0.476803 0
2.61422 -0.000307533 0
2.20233 -0.523262 0
2.2237 -0.000337526 0
1.1114 -2.6837 0
1.32828 -2.63224 0
0.873501 -2.87923 0
1.04395 -2.82403 0
1.32828 -2.6321 0
1.53683 -2.47961 0
1.04395 -2.82389 0
1.20786 -2.66028 0
0.873173 -2.87923 0
1.04356 -2.82403 0
0.601749 -3.02453 0
0.719173 -2.96654 0
1.04356 -2.82389 0
1.20741 -2.66028 0
0.719173 -2.9664 0
0.832089 -2.79454 0
1.53683 -2.47935 0
1.72903 -2.23168 0
1.20786 -2.66001 0
1.35893 -2.39429 0
1.72903 -2.23131 0
1.89751 -1.89798 0
1.35893 -2.39389 0
1.49134 -2.03628 0
1.20741 -2.66001 0
1.35842 -2.39429 0
0.832089 -2.79425 0
0.936156 -2.51513 0
1.35842 -2.39389 0
1.49078 -2.03628 0
0.936156 -2.5147 0
1.02737 -2.13905 0
0.601384 -3.02453 0
0.718737 -2.96654 0
0.30687 -3.11401 0
0.366752 -3.05431 0
0.718737 -2.9664 0
0.831584 -2.79454 0
0.366752 -3.05415 0
0.424336 -2.87721 0
0.306482 -3.11401 0
0.366289 -3.05431 0
0.000197578 -3.14422 0
0.000236187 -3.08394 0
0.366289 -3.05415 0
0.4238 -2.87721 0
0.000236187 -3.08378 0
0.000273314 -2.90513 0
0.831584 -2.79425 0
0.935588 -2.51513 0
0.424336 -2.87691 0
0.477406 -2.58953 0
0.935588 -2.5147 0
1.02675 -2.13905 0
0.477406 -2.5891 0
0.523924 -2.20233 0
0.4238 -2.87691 0
0.476803 -2.58953 0
0.000273314 -2.90482 0
0.000307533 -2.61466 0
0.476803 -2.5891 0
0.523262 -2.20233 0
0.000307533 -2.61422 0
0.000337526 -2.2237 0
1.89751 -1.89751 0
2.03577 -1.49134 0
1.49134 -2.03577 0
1.60001 -1.60001 0
2.03577 -1.49078 0
2.13851 -1.02737 0
1.60001 -1.5994 0
1.68075 -1.10223 0
1.49078 -2.03577 0
1.5994 -1.60001 0
1.02737 -2.13851 0
1.10223 -1.68075 0
1.5994 -1.5994 0
1.68012 -1.10223 0
1.10223 -1.68012 0
1.15786 -1.15786 0
2.13851 -1.02675 0
2.20178 -0.523924 0
1.68075 -1.10157 0
1.73048 -0.5621 0
2.20178 -0.523262 0
2.22314 -0.000337526 0
1.73048 -0.56139 0
1.74727 -0.000362142 0
1.68012 -1.10157 0
1.72983 -0.5621 0
1.15786 -1.15716 0
1.19212 -0.590468 0
1.72983 -0.56139 0
1.74661 -0.000362142 0
1.19212 -0.589722 0
1.20368 -0.000380433 0
1.02675 -2.13851 0
1.10157 -1.68075 0
0.523924 -2.20178 0