# vtk DataFile Version 3.0
#This file was generated by the deal.II library on 2017/9/21 at 11:19:25
ASCII
DATASET UNSTRUCTURED_GRID

POINTS 16 double
0 0 0
0.5 0 0
0 0.5 0
0.5 0.5 0
0.5 0 0
1 0 0
0.5 0.5 0
1 0.5 0
0 0.5 0
0.5 0.5 0
0 1 0
0.5 1 0
0.5 0.5 0
1 0.5 0
0.5 1 0
1 1 0

CELLS 4 20
4	0	1	3	2
4	4	5	7	6
4	8	9	11	10
4	12	13	15	14

CELL_TYPES 4
 9 9 9 9
POINT_DATA 16
VECTORS velocity double
0 0 0
0.927933 0 0
0 -0.927943 0
1.09174 -1.09173 0
0.927933 0 0
0 0 0
1.09174 1.09173 0
0 0.927943 0
0 -0.927943 0
-1.09172 -1.09173 0
0 0 0
-0.927952 0 0
-1.09172 1.09173 0
0 0.927943 0
-0.927952 0 0
0 0 0
SCALARS pressure double 1
LOOKUP_TABLE default
0.132722 -3.35639 4.71188 0.132655 3.35639 -0.132722 -0.132655 -4.71188 -2.02695 0.132655 0.132722 3.38244 -0.132655 2.02695 -3.38244 -0.132722 
SCALARS global_div_diff double 1
LOOKUP_TABLE default
1.89467e-10 1.89467e-10 1.89467e-10 1.89467e-10 1.47352e-10 1.47352e-10 1.47352e-10 1.47352e-10 2.43193e-10 2.43193e-10 2.43193e-10 2.43193e-10 3.13002e-10 3.13002e-10 3.13002e-10 3.13002e-10 
SCALARS cell_div_diff double 1
LOOKUP_TABLE default
1.89467e-10 1.89467e-10 1.89467e-10 1.89467e-10 1.47352e-10 1.47352e-10 1.47352e-10 1.47352e-10 2.43194e-10 2.43194e-10 2.43194e-10 2.43194e-10 3.13002e-10 3.13002e-10 3.13002e-10 3.13002e-10 
SCALARS global_l2_diff double 1
LOOKUP_TABLE default
0.626123 0.626123 0.626123 0.626123 0.626123 0.626123 0.626123 0.626123 0.626123 0.626123 0.626123 0.626123 0.626123 0.626123 0.626123 0.626123 
SCALARS global_h1_diff double 1
LOOKUP_TABLE default
6.56554 6.56554 6.56554 6.56554 6.56554 6.56554 6.56554 6.56554 6.56554 6.56554 6.56554 6.56554 6.56554 6.56554 6.56554 6.56554 
