# vtk DataFile Version 3.0
#This file was generated by the deal.II library on 2017/9/21 at 11:19:26
ASCII
DATASET UNSTRUCTURED_GRID

POINTS 1024 double
0 0 0
0.0625 0 0
0 0.0625 0
0.0625 0.0625 0
0.0625 0 0
0.125 0 0
0.0625 0.0625 0
0.125 0.0625 0
0 0.0625 0
0.0625 0.0625 0
0 0.125 0
0.0625 0.125 0
0.0625 0.0625 0
0.125 0.0625 0
0.0625 0.125 0
0.125 0.125 0
0.125 0 0
0.1875 0 0
0.125 0.0625 0
0.1875 0.0625 0
0.1875 0 0
0.25 0 0
0.1875 0.0625 0
0.25 0.0625 0
0.125 0.0625 0
0.1875 0.0625 0
0.125 0.125 0
0.1875 0.125 0
0.1875 0.0625 0
0.25 0.0625 0
0.1875 0.125 0
0.25 0.125 0
0 0.125 0
0.0625 0.125 0
0 0.1875 0
0.0625 0.1875 0
0.0625 0.125 0
0.125 0.125 0
0.0625 0.1875 0
0.125 0.1875 0
0 0.1875 0
0.0625 0.1875 0
0 0.25 0
0.0625 0.25 0
0.0625 0.1875 0
0.125 0.1875 0
0.0625 0.25 0
0.125 0.25 0
0.125 0.125 0
0.1875 0.125 0
0.125 0.1875 0
0.1875 0.1875 0
0.1875 0.125 0
0.25 0.125 0
0.1875 0.1875 0
0.25 0.1875 0
0.125 0.1875 0
0.1875 0.1875 0
0.125 0.25 0
0.1875 0.25 0
0.1875 0.1875 0
0.25 0.1875 0
0.1875 0.25 0
0.25 0.25 0
0.25 0 0
0.3125 0 0
0.25 0.0625 0
0.3125 0.0625 0
0.3125 0 0
0.375 0 0
0.3125 0.0625 0
0.375 0.0625 0
0.25 0.0625 0
0.3125 0.0625 0
0.25 0.125 0
0.3125 0.125 0
0.3125 0.0625 0
0.375 0.0625 0
0.3125 0.125 0
0.375 0.125 0
0.375 0 0
0.4375 0 0
0.375 0.0625 0
0.4375 0.0625 0
0.4375 0 0
0.5 0 0
0.4375 0.0625 0
0.5 0.0625 0
0.375 0.0625 0
0.4375 0.0625 0
0.375 0.125 0
0.4375 0.125 0
0.4375 0.0625 0
0.5 0.0625 0
0.4375 0.125 0
0.5 0.125 0
0.25 0.125 0
0.3125 0.125 0
0.25 0.1875 0
0.3125 0.1875 0
0.3125 0.125 0
0.375 0.125 0
0.3125 0.1875 0
0.375 0.1875 0
0.25 0.1875 0
0.3125 0.1875 0
0.25 0.25 0
0.3125 0.25 0
0.3125 0.1875 0
0.375 0.1875 0
0.3125 0.25 0
0.375 0.25 0
0.375 0.125 0
0.4375 0.125 0
0.375 0.1875 0
0.4375 0.1875 0
0.4375 0.125 0
0.5 0.125 0
0.4375 0.1875 0
0.5 0.1875 0
0.375 0.1875 0
0.4375 0.1875 0
0.375 0.25 0
0.4375 0.25 0
0.4375 0.1875 0
0.5 0.1875 0
0.4375 0.25 0
0.5 0.25 0
0 0.25 0
0.0625 0.25 0
0 0.3125 0
0.0625 0.3125 0
0.0625 0.25 0
0.125 0.25 0
0.0625 0.3125 0
0.125 0.3125 0
0 0.3125 0
0.0625 0.3125 0
0 0.375 0
0.0625 0.375 0
0.0625 0.3125 0
0.125 0.3125 0
0.0625 0.375 0
0.125 0.375 0
0.125 0.25 0
0.1875 0.25 0
0.125 0.3125 0
0.1875 0.3125 0
0.1875 0.25 0
0.25 0.25 0
0.1875 0.3125 0
0.25 0.3125 0
0.125 0.3125 0
0.1875 0.3125 0
0.125 0.375 0
0.1875 0.375 0
0.1875 0.3125 0
0.25 0.3125 0
0.1875 0.375 0
0.25 0.375 0
0 0.375 0
0.0625 0.375 0
0 0.4375 0
0.0625 0.4375 0
0.0625 0.375 0
0.125 0.375 0
0.0625 0.4375 0
0.125 0.4375 0
0 0.4375 0
0.0625 0.4375 0
0 0.5 0
0.0625 0.5 0
0.0625 0.4375 0
0.125 0.4375 0
0.0625 0.5 0
0.125 0.5 0
0.125 0.375 0
0.1875 0.375 0
0.125 0.4375 0
0.1875 0.4375 0
0.1875 0.375 0
0.25 0.375 0
0.1875 0.4375 0
0.25 0.4375 0
0.125 0.4375 0
0.1875 0.4375 0
0.125 0.5 0
0.1875 0.5 0
0.1875 0.4375 0
0.25 0.4375 0
0.1875 0.5 0
0.25 0.5 0
0.25 0.25 0
0.3125 0.25 0
0.25 0.3125 0
0.3125 0.3125 0
0.3125 0.25 0
0.375 0.25 0
0.3125 0.3125 0
0.375 0.3125 0
0.25 0.3125 0
0.3125 0.3125 0
0.25 0.375 0
0.3125 0.375 0
0.3125 0.3125 0
0.375 0.3125 0
0.3125 0.375 0
0.375 0.375 0
0.375 0.25 0
0.4375 0.25 0
0.375 0.3125 0
0.4375 0.3125 0
0.4375 0.25 0
0.5 0.25 0
0.4375 0.3125 0
0.5 0.3125 0
0.375 0.3125 0
0.4375 0.3125 0
0.375 0.375 0
0.4375 0.375 0
0.4375 0.3125 0
0.5 0.3125 0
0.4375 0.375 0
0.5 0.375 0
0.25 0.375 0
0.3125 0.375 0
0.25 0.4375 0
0.3125 0.4375 0
0.3125 0.375 0
0.375 0.375 0
0.3125 0.4375 0
0.375 0.4375 0
0.25 0.4375 0
0.3125 0.4375 0
0.25 0.5 0
0.3125 0.5 0
0.3125 0.4375 0
0.375 0.4375 0
0.3125 0.5 0
0.375 0.5 0
0.375 0.375 0
0.4375 0.375 0
0.375 0.4375 0
0.4375 0.4375 0
0.4375 0.375 0
0.5 0.375 0
0.4375 0.4375 0
0.5 0.4375 0
0.375 0.4375 0
0.4375 0.4375 0
0.375 0.5 0
0.4375 0.5 0
0.4375 0.4375 0
0.5 0.4375 0
0.4375 0.5 0
0.5 0.5 0
0.5 0 0
0.5625 0 0
0.5 0.0625 0
0.5625 0.0625 0
0.5625 0 0
0.625 0 0
0.5625 0.0625 0
0.625 0.0625 0
0.5 0.0625 0
0.5625 0.0625 0
0.5 0.125 0
0.5625 0.125 0
0.5625 0.0625 0
0.625 0.0625 0
0.5625 0.125 0
0.625 0.125 0
0.625 0 0
0.6875 0 0
0.625 0.0625 0
0.6875 0.0625 0
0.6875 0 0
0.75 0 0
0.6875 0.0625 0
0.75 0.0625 0
0.625 0.0625 0
0.6875 0.0625 0
0.625 0.125 0
0.6875 0.125 0
0.6875 0.0625 0
0.75 0.0625 0
0.6875 0.125 0
0.75 0.125 0
0.5 0.125 0
0.5625 0.125 0
0.5 0.1875 0
0.5625 0.1875 0
0.5625 0.125 0
0.625 0.125 0
0.5625 0.1875 0
0.625 0.1875 0
0.5 0.1875 0
0.5625 0.1875 0
0.5 0.25 0
0.5625 0.25 0
0.5625 0.1875 0
0.625 0.1875 0
0.5625 0.25 0
0.625 0.25 0
0.625 0.125 0
0.6875 0.125 0
0.625 0.1875 0
0.6875 0.1875 0
0.6875 0.125 0
0.75 0.125 0
0.6875 0.1875 0
0.75 0.1875 0
0.625 0.1875 0
0.6875 0.1875 0
0.625 0.25 0
0.6875 0.25 0
0.6875 0.1875 0
0.75 0.1875 0
0.6875 0.25 0
0.75 0.25 0
0.75 0 0
0.8125 0 0
0.75 0.0625 0
0.8125 0.0625 0
0.8125 0 0
0.875 0 0
0.8125 0.0625 0
0.875 0.0625 0
0.75 0.0625 0
0.8125 0.0625 0
0.75 0.125 0
0.8125 0.125 0
0.8125 0.0625 0
0.875 0.0625 0
0.8125 0.125 0
0.875 0.125 0
0.875 0 0
0.9375 0 0
0.875 0.0625 0
0.9375 0.0625 0
0.9375 0 0
1 0 0
0.9375 0.0625 0
1 0.0625 0
0.875 0.0625 0
0.9375 0.0625 0
0.875 0.125 0
0.9375 0.125 0
0.9375 0.0625 0
1 0.0625 0
0.9375 0.125 0
1 0.125 0
0.75 0.125 0
0.8125 0.125 0
0.75 0.1875 0
0.8125 0.1875 0
0.8125 0.125 0
0.875 0.125 0
0.8125 0.1875 0
0.875 0.1875 0
0.75 0.1875 0
0.8125 0.1875 0
0.75 0.25 0
0.8125 0.25 0
0.8125 0.1875 0
0.875 0.1875 0
0.8125 0.25 0
0.875 0.25 0
0.875 0.125 0
0.9375 0.125 0
0.875 0.1875 0
0.9375 0.1875 0
0.9375 0.125 0
1 0.125 0
0.9375 0.1875 0
1 0.1875 0
0.875 0.1875 0
0.9375 0.1875 0
0.875 0.25 0
0.9375 0.25 0
0.9375 0.1875 0
1 0.1875 0
0.9375 0.25 0
1 0.25 0
0.5 0.25 0
0.5625 0.25 0
0.5 0.3125 0
0.5625 0.3125 0
0.5625 0.25 0
0.625 0.25 0
0.5625 0.3125 0
0.625 0.3125 0
0.5 0.3125 0
0.5625 0.3125 0
0.5 0.375 0
0.5625 0.375 0
0.5625 0.3125 0
0.625 0.3125 0
0.5625 0.375 0
0.625 0.375 0
0.625 0.25 0
0.6875 0.25 0
0.625 0.3125 0
0.6875 0.3125 0
0.6875 0.25 0
0.75 0.25 0
0.6875 0.3125 0
0.75 0.3125 0
0.625 0.3125 0
0.6875 0.3125 0
0.625 0.375 0
0.6875 0.375 0
0.6875 0.3125 0
0.75 0.3125 0
0.6875 0.375 0
0.75 0.375 0
0.5 0.375 0
0.5625 0.375 0
0.5 0.4375 0
0.5625 0.4375 0
0.5625 0.375 0
0.625 0.375 0
0.5625 0.4375 0
0.625 0.4375 0
0.5 0.4375 0
0.5625 0.4375 0
0.5 0.5 0
0.5625 0.5 0
0.5625 0.4375 0
0.625 0.4375 0
0.5625 0.5 0
0.625 0.5 0
0.625 0.375 0
0.6875 0.375 0
0.625 0.4375 0
0.6875 0.4375 0
0.6875 0.375 0
0.75 0.375 0
0.6875 0.4375 0
0.75 0.4375 0
0.625 0.4375 0
0.6875 0.4375 0
0.625 0.5 0
0.6875 0.5 0
0.6875 0.4375 0
0.75 0.4375 0
0.6875 0.5 0
0.75 0.5 0
0.75 0.25 0
0.8125 0.25 0
0.75 0.3125 0
0.8125 0.3125 0
0.8125 0.25 0
0.875 0.25 0
0.8125 0.3125 0
0.875 0.3125 0
0.75 0.3125 0
0.8125 0.3125 0
0.75 0.375 0
0.8125 0.375 0
0.8125 0.3125 0
0.875 0.3125 0
0.8125 0.375 0
0.875 0.375 0
0.875 0.25 0
0.9375 0.25 0
0.875 0.3125 0
0.9375 0.3125 0
0.9375 0.25 0
1 0.25 0
0.9375 0.3125 0
1 0.3125 0
0.875 0.3125 0
0.9375 0.3125 0
0.875 0.375 0
0.9375 0.375 0
0.9375 0.3125 0
1 0.3125 0
0.9375 0.375 0
1 0.375 0
0.75 0.375 0
0.8125 0.375 0
0.75 0.4375 0
0.8125 0.4375 0
0.8125 0.375 0
0.875 0.375 0
0.8125 0.4375 0
0.875 0.4375 0
0.75 0.4375 0
0.8125 0.4375 0
0.75 0.5 0
0.8125 0.5 0
0.8125 0.4375 0
0.875 0.4375 0
0.8125 0.5 0
0.875 0.5 0
0.875 0.375 0
0.9375 0.375 0
0.875 0.4375 0
0.9375 0.4375 0
0.9375 0.375 0
1 0.375 0
0.9375 0.4375 0
1 0.4375 0
0.875 0.4375 0
0.9375 0.4375 0
0.875 0.5 0
0.9375 0.5 0
0.9375 0.4375 0
1 0.4375 0
0.9375 0.5 0
1 0.5 0
0 0.5 0
0.0625 0.5 0
0 0.5625 0
0.0625 0.5625 0
0.0625 0.5 0
0.125 0.5 0
0.0625 0.5625 0
0.125 0.5625 0
0 0.5625 0
0.0625 0.5625 0
0 0.625 0
0.0625 0.625 0
0.0625 0.5625 0
0.125 0.5625 0
0.0625 0.625 0
0.125 0.625 0
0.125 0.5 0
0.1875 0.5 0
0.125 0.5625 0
0.1875 0.5625 0
0.1875 0.5 0
0.25 0.5 0
0.1875 0.5625 0
0.25 0.5625 0
0.125 0.5625 0
0.1875 0.5625 0
0.125 0.625 0
0.1875 0.625 0
0.1875 0.5625 0
0.25 0.5625 0
0.1875 0.625 0
0.25 0.625 0
0 0.625 0
0.0625 0.625 0
0 0.6875 0
0.0625 0.6875 0
0.0625 0.625 0
0.125 0.625 0
0.0625 0.6875 0
0.125 0.6875 0
0 0.6875 0
0.0625 0.6875 0
0 0.75 0
0.0625 0.75 0
0.0625 0.6875 0
0.125 0.6875 0
0.0625 0.75 0
0.125 0.75 0
0.125 0.625 0
0.1875 0.625 0
0.125 0.6875 0
0.1875 0.6875 0
0.1875 0.625 0
0.25 0.625 0
0.1875 0.6875 0
0.25 0.6875 0
0.125 0.6875 0
0.1875 0.6875 0
0.125 0.75 0
0.1875 0.75 0
0.1875 0.6875 0
0.25 0.6875 0
0.1875 0.75 0
0.25 0.75 0
0.25 0.5 0
0.3125 0.5 0
0.25 0.5625 0
0.3125 0.5625 0
0.3125 0.5 0
0.375 0.5 0
0.3125 0.5625 0
0.375 0.5625 0
0.25 0.5625 0
0.3125 0.5625 0
0.25 0.625 0
0.3125 0.625 0
0.3125 0.5625 0
0.375 0.5625 0
0.3125 0.625 0
0.375 0.625 0
0.375 0.5 0
0.4375 0.5 0
0.375 0.5625 0
0.4375 0.5625 0
0.4375 0.5 0
0.5 0.5 0
0.4375 0.5625 0
0.5 0.5625 0
0.375 0.5625 0
0.4375 0.5625 0
0.375 0.625 0
0.4375 0.625 0
0.4375 0.5625 0
0.5 0.5625 0
0.4375 0.625 0
0.5 0.625 0
0.25 0.625 0
0.3125 0.625 0
0.25 0.6875 0
0.3125 0.6875 0
0.3125 0.625 0
0.375 0.625 0
0.3125 0.6875 0
0.375 0.6875 0
0.25 0.6875 0
0.3125 0.6875 0
0.25 0.75 0
0.3125 0.75 0
0.3125 0.6875 0
0.375 0.6875 0
0.3125 0.75 0
0.375 0.75 0
0.375 0.625 0
0.4375 0.625 0
0.375 0.6875 0
0.4375 0.6875 0
0.4375 0.625 0
0.5 0.625 0
0.4375 0.6875 0
0.5 0.6875 0
0.375 0.6875 0
0.4375 0.6875 0
0.375 0.75 0
0.4375 0.75 0
0.4375 0.6875 0
0.5 0.6875 0
0.4375 0.75 0
0.5 0.75 0
0 0.75 0
0.0625 0.75 0
0 0.8125 0
0.0625 0.8125 0
0.0625 0.75 0
0.125 0.75 0
0.0625 0.8125 0
0.125 0.8125 0
0 0.8125 0
0.0625 0.8125 0
0 0.875 0
0.0625 0.875 0
0.0625 0.8125 0
0.125 0.8125 0
0.0625 0.875 0
0.125 0.875 0
0.125 0.75 0
0.1875 0.75 0
0.125 0.8125 0
0.1875 0.8125 0
0.1875 0.75 0
0.25 0.75 0
0.1875 0.8125 0
0.25 0.8125 0
0.125 0.8125 0
0.1875 0.8125 0
0.125 0.875 0
0.1875 0.875 0
0.1875 0.8125 0
0.25 0.8125 0
0.1875 0.875 0
0.25 0.875 0
0 0.875 0
0.0625 0.875 0
0 0.9375 0
0.0625 0.9375 0
0.0625 0.875 0
0.125 0.875 0
0.0625 0.9375 0
0.125 0.9375 0
0 0.9375 0
0.0625 0.9375 0
0 1 0
0.0625 1 0
0.0625 0.9375 0
0.125 0.9375 0
0.0625 1 0
0.125 1 0
0.125 0.875 0
0.1875 0.875 0
0.125 0.9375 0
0.1875 0.9375 0
0.1875 0.875 0
0.25 0.875 0
0.1875 0.9375 0
0.25 0.9375 0
0.125 0.9375 0
0.1875 0.9375 0
0.125 1 0
0.1875 1 0
0.1875 0.9375 0
0.25 0.9375 0
0.1875 1 0
0.25 1 0
0.25 0.75 0
0.3125 0.75 0
0.25 0.8125 0
0.3125 0.8125 0
0.3125 0.75 0
0.375 0.75 0
0.3125 0.8125 0
0.375 0.8125 0
0.25 0.8125 0
0.3125 0.8125 0
0.25 0.875 0
0.3125 0.875 0
0.3125 0.8125 0
0.375 0.8125 0
0.3125 0.875 0
0.375 0.875 0
0.375 0.75 0
0.4375 0.75 0
0.375 0.8125 0
0.4375 0.8125 0
0.4375 0.75 0
0.5 0.75 0
0.4375 0.8125 0
0.5 0.8125 0
0.375 0.8125 0
0.4375 0.8125 0
0.375 0.875 0
0.4375 0.875 0
0.4375 0.8125 0
0.5 0.8125 0
0.4375 0.875 0
0.5 0.875 0
0.25 0.875 0
0.3125 0.875 0
0.25 0.9375 0
0.3125 0.9375 0
0.3125 0.875 0
0.375 0.875 0
0.3125 0.9375 0
0.375 0.9375 0
0.25 0.9375 0
0.3125 0.9375 0
0.25 1 0
0.3125 1 0
0.3125 0.9375 0
0.375 0.9375 0
0.3125 1 0
0.375 1 0
0.375 0.875 0
0.4375 0.875 0
0.375 0.9375 0
0.4375 0.9375 0
0.4375 0.875 0
0.5 0.875 0
0.4375 0.9375 0
0.5 0.9375 0
0.375 0.9375 0
0.4375 0.9375 0
0.375 1 0
0.4375 1 0
0.4375 0.9375 0
0.5 0.9375 0
0.4375 1 0
0.5 1 0
0.5 0.5 0
0.5625 0.5 0
0.5 0.5625 0
0.5625 0.5625 0
0.5625 0.5 0
0.625 0.5 0
0.5625 0.5625 0
0.625 0.5625 0
0.5 0.5625 0
0.5625 0.5625 0
0.5 0.625 0
0.5625 0.625 0
0.5625 0.5625 0
0.625 0.5625 0
0.5625 0.625 0
0.625 0.625 0
0.625 0.5 0
0.6875 0.5 0
0.625 0.5625 0
0.6875 0.5625 0
0.6875 0.5 0
0.75 0.5 0
0.6875 0.5625 0
0.75 0.5625 0
0.625 0.5625 0
0.6875 0.5625 0
0.625 0.625 0
0.6875 0.625 0
0.6875 0.5625 0
0.75 0.5625 0
0.6875 0.625 0
0.75 0.625 0
0.5 0.625 0
0.5625 0.625 0
0.5 0.6875 0
0.5625 0.6875 0
0.5625 0.625 0
0.625 0.625 0
0.5625 0.6875 0
0.625 0.6875 0
0.5 0.6875 0
0.5625 0.6875 0
0.5 0.75 0
0.5625 0.75 0
0.5625 0.6875 0
0.625 0.6875 0
0.5625 0.75 0
0.625 0.75 0
0.625 0.625 0
0.6875 0.625 0
0.625 0.6875 0
0.6875 0.6875 0
0.6875 0.625 0
0.75 0.625 0
0.6875 0.6875 0
0.75 0.6875 0
0.625 0.6875 0
0.6875 0.6875 0
0.625 0.75 0
0.6875 0.75 0
0.6875 0.6875 0
0.75 0.6875 0
0.6875 0.75 0
0.75 0.75 0
0.75 0.5 0
0.8125 0.5 0
0.75 0.5625 0
0.8125 0.5625 0
0.8125 0.5 0
0.875 0.5 0
0.8125 0.5625 0
0.875 0.5625 0
0.75 0.5625 0
0.8125 0.5625 0
0.75 0.625 0
0.8125 0.625 0
0.8125 0.5625 0
0.875 0.5625 0
0.8125 0.625 0
0.875 0.625 0
0.875 0.5 0
0.9375 0.5 0
0.875 0.5625 0
0.9375 0.5625 0
0.9375 0.5 0
1 0.5 0
0.9375 0.5625 0
1 0.5625 0
0.875 0.5625 0
0.9375 0.5625 0
0.875 0.625 0
0.9375 0.625 0
0.9375 0.5625 0
1 0.5625 0
0.9375 0.625 0
1 0.625 0
0.75 0.625 0
0.8125 0.625 0
0.75 0.6875 0
0.8125 0.6875 0
0.8125 0.625 0
0.875 0.625 0
0.8125 0.6875 0
0.875 0.6875 0
0.75 0.6875 0
0.8125 0.6875 0
0.75 0.75 0
0.8125 0.75 0
0.8125 0.6875 0
0.875 0.6875 0
0.8125 0.75 0
0.875 0.75 0
0.875 0.625 0
0.9375 0.625 0
0.875 0.6875 0
0.9375 0.6875 0
0.9375 0.625 0
1 0.625 0
0.9375 0.6875 0
1 0.6875 0
0.875 0.6875 0
0.9375 0.6875 0
0.875 0.75 0
0.9375 0.75 0
0.9375 0.6875 0
1 0.6875 0
0.9375 0.75 0
1 0.75 0
0.5 0.75 0
0.5625 0.75 0
0.5 0.8125 0
0.5625 0.8125 0
0.5625 0.75 0
0.625 0.75 0
0.5625 0.8125 0
0.625 0.8125 0
0.5 0.8125 0
0.5625 0.8125 0
0.5 0.875 0
0.5625 0.875 0
0.5625 0.8125 0
0.625 0.8125 0
0.5625 0.875 0
0.625 0.875 0
0.625 0.75 0
0.6875 0.75 0
0.625 0.8125 0
0.6875 0.8125 0
0.6875 0.75 0
0.75 0.75 0
0.6875 0.8125 0
0.75 0.8125 0
0.625 0.8125 0
0.6875 0.8125 0
0.625 0.875 0
0.6875 0.875 0
0.6875 0.8125 0
0.75 0.8125 0
0.6875 0.875 0
0.75 0.875 0
0.5 0.875 0
0.5625 0.875 0
0.5 0.9375 0
0.5625 0.9375 0
0.5625 0.875 0
0.625 0.875 0
0.5625 0.9375 0
0.625 0.9375 0
0.5 0.9375 0
0.5625 0.9375 0
0.5 1 0
0.5625 1 0
0.5625 0.9375 0
0.625 0.9375 0
0.5625 1 0
0.625 1 0
0.625 0.875 0
0.6875 0.875 0
0.625 0.9375 0
0.6875 0.9375 0
0.6875 0.875 0
0.75 0.875 0
0.6875 0.9375 0
0.75 0.9375 0
0.625 0.9375 0
0.6875 0.9375 0
0.625 1 0
0.6875 1 0
0.6875 0.9375 0
0.75 0.9375 0
0.6875 1 0
0.75 1 0
0.75 0.75 0
0.8125 0.75 0
0.75 0.8125 0
0.8125 0.8125 0
0.8125 0.75 0
0.875 0.75 0
0.8125 0.8125 0
0.875 0.8125 0
0.75 0.8125 0
0.8125 0.8125 0
0.75 0.875 0
0.8125 0.875 0
0.8125 0.8125 0
0.875 0.8125 0
0.8125 0.875 0
0.875 0.875 0
0.875 0.75 0
0.9375 0.75 0
0.875 0.8125 0
0.9375 0.8125 0
0.9375 0.75 0
1 0.75 0
0.9375 0.8125 0
1 0.8125 0
0.875 0.8125 0
0.9375 0.8125 0
0.875 0.875 0
0.9375 0.875 0
0.9375 0.8125 0
1 0.8125 0
0.9375 0.875 0
1 0.875 0
0.75 0.875 0
0.8125 0.875 0
0.75 0.9375 0
0.8125 0.9375 0
0.8125 0.875 0
0.875 0.875 0
0.8125 0.9375 0
0.875 0.9375 0
0.75 0.9375 0
0.8125 0.9375 0
0.75 1 0
0.8125 1 0
0.8125 0.9375 0
0.875 0.9375 0
0.8125 1 0
0.875 1 0
0.875 0.875 0
0.9375 0.875 0
0.875 0.9375 0
0.9375 0.9375 0
0.9375 0.875 0
1 0.875 0
0.9375 0.9375 0
1 0.9375 0
0.875 0.9375 0
0.9375 0.9375 0
0.875 1 0
0.9375 1 0
0.9375 0.9375 0
1 0.9375 0
0.9375 1 0
1 1 0

CELLS 256 1280
4	0	1	3	2
4	4	5	7	6
4	8	9	11	10
4	12	13	15	14
4	16	17	19	18
4	20	21	23	22
4	24	25	27	26
4	28	29	31	30
4	32	33	35	34
4	36	37	39	38
4	40	41	43	42
4	44	45	47	46
4	48	49	51	50
4	52	53	55	54
4	56	57	59	58
4	60	61	63	62
4	64	65	67	66
4	68	69	71	70
4	72	73	75	74
4	76	77	79	78
4	80	81	83	82
4	84	85	87	86
4	88	89	91	90
4	92	93	95	94
4	96	97	99	98
4	100	101	103	102
4	104	105	107	106
4	108	109	111	110
4	112	113	115	114
4	116	117	119	118
4	120	121	123	122
4	124	125	127	126
4	128	129	131	130
4	132	133	135	134
4	136	137	139	138
4	140	141	143	142
4	144	145	147	146
4	148	149	151	150
4	152	153	155	154
4	156	157	159	158
4	160	161	163	162
4	164	165	167	166
4	168	169	171	170
4	172	173	175	174
4	176	177	179	178
4	180	181	183	182
4	184	185	187	186
4	188	189	191	190
4	192	193	195	194
4	196	197	199	198
4	200	201	203	202
4	204	205	207	206
4	208	209	211	210
4	212	213	215	214
4	216	217	219	218
4	220	221	223	222
4	224	225	227	226
4	228	229	231	230
4	232	233	235	234
4	236	237	239	238
4	240	241	243	242
4	244	245	247	246
4	248	249	251	250
4	252	253	255	254
4	256	257	259	258
4	260	261	263	262
4	264	265	267	266
4	268	269	271	270
4	272	273	275	274
4	276	277	279	278
4	280	281	283	282
4	284	285	287	286
4	288	289	291	290
4	292	293	295	294
4	296	297	299	298
4	300	301	303	302
4	304	305	307	306
4	308	309	311	310
4	312	313	315	314
4	316	317	319	318
4	320	321	323	322
4	324	325	327	326
4	328	329	331	330
4	332	333	335	334
4	336	337	339	338
4	340	341	343	342
4	344	345	347	346
4	348	349	351	350
4	352	353	355	354
4	356	357	359	358
4	360	361	363	362
4	364	365	367	366
4	368	369	371	370
4	372	373	375	374
4	376	377	379	378
4	380	381	383	382
4	384	385	387	386
4	388	389	391	390
4	392	393	395	394
4	396	397	399	398
4	400	401	403	402
4	404	405	407	406
4	408	409	411	410
4	412	413	415	414
4	416	417	419	418
4	420	421	423	422
4	424	425	427	426
4	428	429	431	430
4	432	433	435	434
4	436	437	439	438
4	440	441	443	442
4	444	445	447	446
4	448	449	451	450
4	452	453	455	454
4	456	457	459	458
4	460	461	463	462
4	464	465	467	466
4	468	469	471	470
4	472	473	475	474
4	476	477	479	478
4	480	481	483	482
4	484	485	487	486
4	488	489	491	490
4	492	493	495	494
4	496	497	499	498
4	500	501	503	502
4	504	505	507	506
4	508	509	511	510
4	512	513	515	514
4	516	517	519	518
4	520	521	523	522
4	524	525	527	526
4	528	529	531	530
4	532	533	535	534
4	536	537	539	538
4	540	541	543	542
4	544	545	547	546
4	548	549	551	550
4	552	553	555	554
4	556	557	559	558
4	560	561	563	562
4	564	565	567	566
4	568	569	571	570
4	572	573	575	574
4	576	577	579	578
4	580	581	583	582
4	584	585	587	586
4	588	589	591	590
4	592	593	595	594
4	596	597	599	598
4	600	601	603	602
4	604	605	607	606
4	608	609	611	610
4	612	613	615	614
4	616	617	619	618
4	620	621	623	622
4	624	625	627	626
4	628	629	631	630
4	632	633	635	634
4	636	637	639	638
4	640	641	643	642
4	644	645	647	646
4	648	649	651	650
4	652	653	655	654
4	656	657	659	658
4	660	661	663	662
4	664	665	667	666
4	668	669	671	670
4	672	673	675	674
4	676	677	679	678
4	680	681	683	682
4	684	685	687	686
4	688	689	691	690
4	692	693	695	694
4	696	697	699	698
4	700	701	703	702
4	704	705	707	706
4	708	709	711	710
4	712	713	715	714
4	716	717	719	718
4	720	721	723	722
4	724	725	727	726
4	728	729	731	730
4	732	733	735	734
4	736	737	739	738
4	740	741	743	742
4	744	745	747	746
4	748	749	751	750
4	752	753	755	754
4	756	757	759	758
4	760	761	763	762
4	764	765	767	766
4	768	769	771	770
4	772	773	775	774
4	776	777	779	778
4	780	781	783	782
4	784	785	787	786
4	788	789	791	790
4	792	793	795	794
4	796	797	799	798
4	800	801	803	802
4	804	805	807	806
4	808	809	811	810
4	812	813	815	814
4	816	817	819	818
4	820	821	823	822
4	824	825	827	826
4	828	829	831	830
4	832	833	835	834
4	836	837	839	838
4	840	841	843	842
4	844	845	847	846
4	848	849	851	850
4	852	853	855	854
4	856	857	859	858
4	860	861	863	862
4	864	865	867	866
4	868	869	871	870
4	872	873	875	874
4	876	877	879	878
4	880	881	883	882
4	884	885	887	886
4	888	889	891	890
4	892	893	895	894
4	896	897	899	898
4	900	901	903	902
4	904	905	907	906
4	908	909	911	910
4	912	913	915	914
4	916	917	919	918
4	920	921	923	922
4	924	925	927	926
4	928	929	931	930
4	932	933	935	934
4	936	937	939	938
4	940	941	943	942
4	944	945	947	946
4	948	949	951	950
4	952	953	955	954
4	956	957	959	958
4	960	961	963	962
4	964	965	967	966
4	968	969	971	970
4	972	973	975	974
4	976	977	979	978
4	980	981	983	982
4	984	985	987	986
4	988	989	991	990
4	992	993	995	994
4	996	997	999	998
4	1000	1001	1003	1002
4	1004	1005	1007	1006
4	1008	1009	1011	1010
4	1012	1013	1015	1014
4	1016	1017	1019	1018
4	1020	1021	1023	1022

CELL_TYPES 256
 9 9 9 9 9 9 9 9 9 9 9 9 9 9 9 9 9 9 9 9 9 9 9 9 9 9 9 9 9 9 9 9 9 9 9 9 9 9 9 9 9 9 9 9 9 9 9 9 9 9 9 9 9 9 9 9 9 9 9 9 9 9 9 9 9 9 9 9 9 9 9 9 9 9 9 9 9 9 9 9 9 9 9 9 9 9 9 9 9 9 9 9 9 9 9 9 9 9 9 9 9 9 9 9 9 9 9 9 9 9 9 9 9 9 9 9 9 9 9 9 9 9 9 9 9 9 9 9 9 9 9 9 9 9 9 9 9 9 9 9 9 9 9 9 9 9 9 9 9 9 9 9 9 9 9 9 9 9 9 9 9 9 9 9 9 9 9 9 9 9 9 9 9 9 9 9 9 9 9 9 9 9 9 9 9 9 9 9 9 9 9 9 9 9 9 9 9 9 9 9 9 9 9 9 9 9 9 9 9 9 9 9 9 9 9 9 9 9 9 9 9 9 9 9 9 9 9 9 9 9 9 9 9 9 9 9 9 9 9 9 9 9 9 9 9 9 9 9 9 9 9 9 9 9 9 9
POINT_DATA 1024
VECTORS velocity double
0 0 0
0.000164664 0 0
0 -0.000164664 0
0.0459944 -0.0459944 0
0.000164664 0 0
0.00053116 0 0
0.0459944 -0.0461825 0
0.176556 -0.0847452 0
0 -0.000164664 0
0.0461825 -0.0459944 0
0 -0.00053116 0
0.0847452 -0.176556 0
0.0461825 -0.0461825 0
0.177364 -0.0847452 0
0.0847452 -0.177364 0
0.326027 -0.326027 0
0.00053116 0 0
0.00102153 0 0
0.176556 -0.0848993 0
0.371596 -0.110632 0
0.00102153 0 0
0.00158332 0 0
0.371596 -0.110718 0
0.601487 -0.119735 0
0.177364 -0.0848993 0
0.373356 -0.110632 0
0.326027 -0.326656 0
0.68704 -0.42588 0
0.373356 -0.110718 0
0.604373 -0.119735 0
0.68704 -0.426226 0
1.11282 -0.461019 0
0 -0.00053116 0
0.0848993 -0.176556 0
0 -0.00102153 0
0.110632 -0.371596 0
0.0848993 -0.177364 0
0.326656 -0.326027 0
0.110632 -0.373356 0
0.42588 -0.68704 0
0 -0.00102153 0
0.110718 -0.371596 0
0 -0.00158332 0
0.119735 -0.601487 0
0.110718 -0.373356 0
0.426226 -0.68704 0
0.119735 -0.604373 0
0.461019 -1.11282 0
0.326656 -0.326656 0
0.688392 -0.42588 0
0.42588 -0.688392 0
0.897882 -0.897882 0
0.688392 -0.426226 0
1.11503 -0.461019 0
0.897882 -0.898618 0
1.45476 -0.97214 0
0.426226 -0.688392 0
0.898618 -0.897882 0
0.461019 -1.11503 0
0.97214 -1.45476 0
0.898618 -0.898618 0
1.45596 -0.97214 0
0.97214 -1.45596 0
1.57529 -1.57529 0
0.00158332 0 0
0.00214051 0 0
0.601487 -0.119735 0
0.831309 -0.110644 0
0.00214051 0 0
0.00261179 0 0
0.831309 -0.110559 0
1.02612 -0.084725 0
0.604373 -0.119735 0
0.835322 -0.110644 0
1.11282 -0.46102 0
1.53856 -0.426054 0
0.835322 -0.110559 0
1.03109 -0.084725 0
1.53856 -0.425709 0
1.89948 -0.326265 0
0.00261179 0 0
0.00292652 0 0
1.02612 -0.0845672 0
1.15629 -0.0459127 0
0.00292652 0 0
0.00303704 0 0
1.15629 -0.0457063 0
1.20199 -0.000111726 0
1.03109 -0.0845672 0
1.16189 -0.0459127 0
1.89948 -0.325626 0
2.14064 -0.176818 0
1.16189 -0.0457063 0
1.20782 -0.000111726 0
2.14064 -0.175982 0
2.22533 -0.000452469 0
1.11503 -0.46102 0
1.54163 -0.426054 0
1.45476 -0.972142 0
2.0117 -0.89848 0
1.54163 -0.425709 0
1.90329 -0.326265 0
2.0117 -0.897744 0
2.48388 -0.688066 0
1.45596 -0.972142 0
2.01337 -0.89848 0
1.57529 -1.57529 0
2.17858 -1.45602 0
2.01337 -0.897744 0
2.48594 -0.688066 0
2.17858 -1.45483 0
2.69009 -1.11507 0
1.90329 -0.325626 0
2.14494 -0.176818 0
2.48388 -0.686704 0
2.7994 -0.372903 0
2.14494 -0.175982 0
2.22979 -0.000452469 0
2.7994 -0.371123 0
2.91019 -0.000963291 0
2.48594 -0.686704 0
2.80172 -0.372903 0
2.69009 -1.11286 0
3.0319 -0.604332 0
2.80172 -0.371123 0
2.91261 -0.000963291 0
3.0319 -0.601438 0
3.15193 -0.00156635 0
0 -0.00158332 0
0.119735 -0.601487 0
0 -0.00214051 0
0.110644 -0.831309 0
0.119735 -0.604373 0
0.46102 -1.11282 0
0.110644 -0.835322 0
0.426054 -1.53856 0
0 -0.00214051 0
0.110559 -0.831309 0
0 -0.00261179 0
0.084725 -1.02612 0
0.110559 -0.835322 0
0.425709 -1.53856 0
0.084725 -1.03109 0
0.326265 -1.89948 0
0.46102 -1.11503 0
0.972142 -1.45476 0
0.426054 -1.54163 0
0.89848 -2.0117 0
0.972142 -1.45596 0
1.57529 -1.57529 0
0.89848 -2.01337 0
1.45602 -2.17858 0
0.425709 -1.54163 0
0.897744 -2.0117 0
0.326265 -1.90329 0
0.688066 -2.48388 0
0.897744 -2.01337 0
1.45483 -2.17858 0
0.688066 -2.48594 0
1.11507 -2.69009 0
0 -0.00261179 0
0.0845672 -1.02612 0
0 -0.00292652 0
0.0459127 -1.15629 0
0.0845672 -1.03109 0
0.325626 -1.89948 0
0.0459127 -1.16189 0
0.176818 -2.14064 0
0 -0.00292652 0
0.0457063 -1.15629 0
0 -0.00303704 0
0.000111727 -1.20199 0
0.0457063 -1.16189 0
0.175982 -2.14064 0
0.000111727 -1.20782 0
0.000452469 -2.22533 0
0.325626 -1.90329 0
0.686704 -2.48388 0
0.176818 -2.14494 0
0.372903 -2.7994 0
0.686704 -2.48594 0
1.11286 -2.69009 0
0.372903 -2.80172 0
0.604332 -3.0319 0
0.175982 -2.14494 0
0.371123 -2.7994 0
0.000452469 -2.22979 0
0.000963291 -2.91019 0
0.371123 -2.80172 0
0.601438 -3.0319 0
0.000963291 -2.91261 0
0.00156635 -3.15193 0
1.57529 -1.57529 0
2.17858 -1.45602 0
1.45602 -2.17858 0
2.01373 -2.01373 0
2.17858 -1.45483 0
2.6901 -1.11507 0
2.01373 -2.01207 0
2.48661 -1.54222 0
1.45483 -2.17858 0
2.01207 -2.01373 0
1.11507 -2.6901 0
1.54222 -2.48661 0
2.01207 -2.01207 0
2.48456 -1.54222 0
1.54222 -2.48456 0
1.90441 -1.90441 0
2.6901 -1.11286 0
3.0319 -0.604332 0
2.48661 -1.53915 0
2.80262 -0.835843 0
3.0319 -0.601438 0
3.15193 -0.00156635 0
2.80262 -0.831834 0
2.91358 -0.00216975 0
2.48456 -1.53915 0
2.8003 -0.835843 0
1.90441 -1.90062 0
2.14645 -1.03215 0
2.8003 -0.831834 0
2.91118 -0.00216975 0
2.14645 -1.0272 0
2.23144 -0.00268147 0
1.11286 -2.6901 0
1.53915 -2.48661 0
0.604332 -3.0319 0
0.835843 -2.80262 0
1.53915 -2.48456 0
1.90062 -1.90441 0
0.835843 -2.8003 0
1.03215 -2.14645 0
0.601438 -3.0319 0
0.831834 -2.80262 0
0.00156635 -3.15193 0
0.00216975 -2.91358 0
0.831834 -2.8003 0
1.0272 -2.14645 0
0.00216975 -2.91118 0
0.00268147 -2.23144 0
1.90062 -1.90062 0
2.14217 -1.03215 0
1.03215 -2.14217 0
1.16333 -1.16333 0
2.14217 -1.0272 0
2.227 -0.00268147 0
1.16333 -1.15775 0
1.2094 -0.00302347 0
1.0272 -2.14217 0
1.15775 -1.16333 0
0.00268147 -2.227 0
0.00302347 -1.2094 0
1.15775 -1.15775 0
1.20359 -0.00302347 0
0.00302347 -1.20359 0
0.00314358 -0.00314358 0
0.00303704 0 0
0.00292652 0 0
1.20199 0.000111726 0
1.15629 0.0457063 0
0.00292652 0 0
0.00261179 0 0
1.15629 0.0459127 0
1.02612 0.0845672 0
1.20782 0.000111726 0
1.16189 0.0457063 0
2.22533 0.000452469 0
2.14064 0.175982 0
1.16189 0.0459127 0
1.03109 0.0845672 0
2.14064 0.176818 0
1.89948 0.325626 0
0.00261179 0 0
0.00214051 0 0
1.02612 0.084725 0
0.831309 0.110559 0
0.00214051 0 0
0.00158332 0 0
0.831309 0.110644 0
0.601487 0.119735 0
1.03109 0.084725 0
0.835322 0.110559 0
1.89948 0.326265 0
1.53856 0.425709 0
0.835322 0.110644 0
0.604373 0.119735 0
1.53856 0.426054 0
1.11282 0.46102 0
2.22979 0.000452469 0
2.14494 0.175982 0
2.91019 0.000963291 0
2.7994 0.371123 0
2.14494 0.176818 0
1.90329 0.325626 0
2.7994 0.372903 0
2.48388 0.686704 0
2.91261 0.000963291 0
2.80172 0.371123 0
3.15193 0.00156635 0
3.0319 0.601438 0
2.80172 0.372903 0
2.48594 0.686704 0
3.0319 0.604332 0
2.69009 1.11286 0
1.90329 0.326265 0
1.54163 0.425709 0
2.48388 0.688066 0
2.0117 0.897744 0
1.54163 0.426054 0
1.11503 0.46102 0
2.0117 0.89848 0
1.45476 0.972142 0
2.48594 0.688066 0
2.01337 0.897744 0
2.69009 1.11507 0
2.17858 1.45483 0
2.01337 0.89848 0
1.45596 0.972142 0
2.17858 1.45602 0
1.57529 1.57529 0
0.00158332 0 0
0.00102153 0 0
0.601487 0.119735 0
0.371596 0.110718 0
0.00102153 0 0
0.00053116 0 0
0.371596 0.110632 0
0.176556 0.0848993 0
0.604373 0.119735 0
0.373356 0.110718 0
1.11282 0.461019 0
0.68704 0.426226 0
0.373356 0.110632 0
0.177364 0.0848993 0
0.68704 0.42588 0
0.326027 0.326656 0
0.00053116 0 0
0.000164664 0 0
0.176556 0.0847452 0
0.0459944 0.0461825 0
0.000164664 0 0
0 0 0
0.0459944 0.0459944 0
0 0.000164664 0
0.177364 0.0847452 0
0.0461825 0.0461825 0
0.326027 0.326027 0
0.0847452 0.177364 0
0.0461825 0.0459944 0
0 0.000164664 0
0.0847452 0.176556 0
0 0.00053116 0
1.11503 0.461019 0
0.688392 0.426226 0
1.45476 0.97214 0
0.897882 0.898618 0
0.688392 0.42588 0
0.326656 0.326656 0
0.897882 0.897882 0
0.42588 0.688392 0
1.45596 0.97214 0
0.898618 0.898618 0
1.57529 1.57529 0
0.97214 1.45596 0
0.898618 0.897882 0
0.426226 0.688392 0
0.97214 1.45476 0
0.461019 1.11503 0
0.326656 0.326027 0
0.0848993 0.177364 0
0.42588 0.68704 0
0.110632 0.373356 0
0.0848993 0.176556 0
0 0.00053116 0
0.110632 0.371596 0
0 0.00102153 0
0.426226 0.68704 0
0.110718 0.373356 0
0.461019 1.11282 0
0.119735 0.604373 0
0.110718 0.371596 0
0 0.00102153 0
0.119735 0.601487 0
0 0.00158332 0
3.15193 0.00156635 0
3.0319 0.601438 0
2.91358 0.00216975 0
2.80262 0.831834 0
3.0319 0.604332 0
2.6901 1.11286 0
2.80262 0.835843 0
2.48661 1.53915 0
2.91118 0.00216975 0
2.8003 0.831834 0
2.23144 0.00268147 0
2.14645 1.0272 0
2.8003 0.835843 0
2.48456 1.53915 0
2.14645 1.03215 0
1.90441 1.90062 0
2.6901 1.11507 0
2.17858 1.45483 0
2.48661 1.54222 0
2.01373 2.01207 0
2.17858 1.45602 0
1.57529 1.57529 0
2.01373 2.01373 0
1.45602 2.17858 0
2.48456 1.54222 0
2.01207 2.01207 0
1.90441 1.90441 0
1.54222 2.48456 0
2.01207 2.01373 0
1.45483 2.17858 0
1.54222 2.48661 0
1.11507 2.6901 0
2.227 0.00268147 0
2.14217 1.0272 0
1.2094 0.00302347 0
1.16333 1.15775 0
2.14217 1.03215 0
1.90062 1.90062 0
1.16333 1.16333 0
1.03215 2.14217 0
1.20359 0.00302347 0
1.15775 1.15775 0
0.00314358 0.00314358 0
0.00302347 1.20359 0
1.15775 1.16333 0
1.0272 2.14217 0
0.00302347 1.2094 0
0.00268147 2.227 0
1.90062 1.90441 0
1.53915 2.48456 0
1.03215 2.14645 0
0.835843 2.8003 0
1.53915 2.48661 0
1.11286 2.6901 0
0.835843 2.80262 0
0.604332 3.0319 0
1.0272 2.14645 0
0.831834 2.8003 0
0.00268147 2.23144 0
0.00216975 2.91118 0
0.831834 2.80262 0
0.601438 3.0319 0
0.00216975 2.91358 0
0.00156635 3.15193 0
1.57529 1.57529 0
0.972142 1.45596 0
1.45602 2.17858 0
0.89848 2.01337 0
0.972142 1.45476 0
0.46102 1.11503 0
0.89848 2.0117 0
0.426054 1.54163 0
1.45483 2.17858 0
0.897744 2.01337 0
1.11507 2.69009 0
0.688066 2.48594 0
0.897744 2.0117 0
0.425709 1.54163 0
0.688066 2.48388 0
0.326265 1.90329 0
0.46102 1.11282 0
0.119735 0.604373 0
0.426054 1.53856 0
0.110644 0.835322 0
0.119735 0.601487 0
0 0.00158332 0
0.110644 0.831309 0
0 0.00214051 0
0.425709 1.53856 0
0.110559 0.835322 0
0.326265 1.89948 0
0.084725 1.03109 0
0.110559 0.831309 0
0 0.00214051 0
0.084725 1.02612 0
0 0.00261179 0
1.11286 2.69009 0
0.686704 2.48594 0
0.604332 3.0319 0
0.372903 2.80172 0
0.686704 2.48388 0
0.325626 1.90329 0
0.372903 2.7994 0
0.176818 2.14494 0
0.601438 3.0319 0
0.371123 2.80172 0
0.00156635 3.15193 0
0.000963291 2.91261 0
0.371123 2.7994 0
0.175982 2.14494 0
0.000963291 2.91019 0
0.000452469 2.22979 0
0.325626 1.89948 0
0.0845672 1.03109 0
0.176818 2.14064 0
0.0459127 1.16189 0
0.0845672 1.02612 0
0 0.00261179 0
0.0459127 1.15629 0
0 0.00292652 0
0.175982 2.14064 0
0.0457063 1.16189 0
0.000452469 2.22533 0
0.000111727 1.20782 0
0.0457063 1.15629 0
0 0.00292652 0
0.000111727 1.20199 0
0 0.00303704 0
0 -0.00303704 0
-0.000111726 -1.20199 0
0 -0.00292652 0
-0.0457063 -1.15629 0
-0.000111726 -1.20782 0
-0.000452469 -2.22533 0
-0.0457063 -1.16189 0
-0.175982 -2.14064 0
0 -0.00292652 0
-0.0459127 -1.15629 0
0 -0.00261179 0
-0.0845672 -1.02612 0
-0.0459127 -1.16189 0
-0.176818 -2.14064 0
-0.0845672 -1.03109 0
-0.325626 -1.89948 0
-0.000452469 -2.22979 0
-0.000963291 -2.91019 0
-0.175982 -2.14494 0
-0.371123 -2.7994 0
-0.000963291 -2.91261 0
-0.00156635 -3.15193 0
-0.371123 -2.80172 0
-0.601438 -3.0319 0
-0.176818 -2.14494 0
-0.372903 -2.7994 0
-0.325626 -1.90329 0
-0.686704 -2.48388 0