# vtk DataFile Version 3.0
#This file was generated by the deal.II library on 2017/9/21 at 11:19:25
ASCII
DATASET UNSTRUCTURED_GRID

POINTS 64 double
0 0 0
0.25 0 0
0 0.25 0
0.25 0.25 0
0.25 0 0
0.5 0 0
0.25 0.25 0
0.5 0.25 0
0 0.25 0
0.25 0.25 0
0 0.5 0
0.25 0.5 0
0.25 0.25 0
0.5 0.25 0
0.25 0.5 0
0.5 0.5 0
0.5 0 0
0.75 0 0
0.5 0.25 0
0.75 0.25 0
0.75 0 0
1 0 0
0.75 0.25 0
1 0.25 0
0.5 0.25 0
0.75 0.25 0
0.5 0.5 0
0.75 0.5 0
0.75 0.25 0
1 0.25 0
0.75 0.5 0
1 0.5 0
0 0.5 0
0.25 0.5 0
0 0.75 0
0.25 0.75 0
0.25 0.5 0
0.5 0.5 0
0.25 0.75 0
0.5 0.75 0
0 0.75 0
0.25 0.75 0
0 1 0
0.25 1 0
0.25 0.75 0
0.5 0.75 0
0.25 1 0
0.5 1 0
0.5 0.5 0
0.75 0.5 0
0.5 0.75 0
0.75 0.75 0
0.75 0.5 0
1 0.5 0
0.75 0.75 0
1 0.75 0
0.5 0.75 0
0.75 0.75 0
0.5 1 0
0.75 1 0
0.75 0.75 0
1 0.75 0
0.75 1 0
1 1 0

CELLS 16 80
4	0	1	3	2
4	4	5	7	6
4	8	9	11	10
4	12	13	15	14
4	16	17	19	18
4	20	21	23	22
4	24	25	27	26
4	28	29	31	30
4	32	33	35	34
4	36	37	39	38
4	40	41	43	42
4	44	45	47	46
4	48	49	51	50
4	52	53	55	54
4	56	57	59	58
4	60	61	63	62

CELL_TYPES 16
 9 9 9 9 9 9 9 9 9 9 9 9 9 9 9 9
POINT_DATA 64
VECTORS velocity double
0 0 0
0.0856021 0 0
0 -0.0856021 0
1.62113 -1.62113 0
0.0856021 0 0
0.162737 0 0
1.62113 -1.62096 0
3.2492 -0.0842428 0
0 -0.0856021 0
1.62096 -1.62113 0
0 -0.162737 0
0.0842428 -3.2492 0
1.62096 -1.62096 0
3.25257 -0.0842428 0
0.0842428 -3.25257 0
0.178069 -0.178069 0
0.162737 0 0
0.0856021 0 0
3.2492 0.0842428 0
1.62113 1.62096 0
0.0856021 0 0
0 0 0
1.62113 1.62113 0
0 0.0856021 0
3.25257 0.0842428 0
1.62096 1.62096 0
0.178069 0.178069 0
0.0842428 3.25257 0
1.62096 1.62113 0
0 0.0856021 0
0.0842428 3.2492 0
0 0.162737 0
0 -0.162737 0
-0.0842428 -3.2492 0
0 -0.0856021 0
-1.62096 -1.62113 0
-0.0842428 -3.25257 0
-0.178069 -0.178069 0
-1.62096 -1.62096 0
-3.25257 -0.0842429 0
0 -0.0856021 0
-1.62113 -1.62113 0
0 0 0
-0.0856022 0 0
-1.62113 -1.62096 0
-3.2492 -0.0842429 0
-0.0856022 0 0
-0.162737 0 0
-0.178069 0.178069 0
-0.0842428 3.25257 0
-3.25257 0.0842429 0
-1.62096 1.62096 0
-0.0842428 3.2492 0
0 0.162737 0
-1.62096 1.62113 0
0 0.0856021 0
-3.2492 0.0842429 0
-1.62113 1.62096 0
-0.162737 0 0
-0.0856022 0 0
-1.62113 1.62113 0
0 0.0856021 0
-0.0856022 0 0
0 0 0
SCALARS pressure double 1
LOOKUP_TABLE default
0.0164256 -0.354565 1.13179 0.549338 -0.458114 -0.313837 0.565277 -0.563892 1.25823 0.53389 1.413 1.364 0.549338 -0.640872 1.4181 0.0164252 0.313837 0.458114 0.563892 -0.565277 0.354565 -0.0164256 -0.549338 -1.13179 0.640872 -0.549338 -0.0164252 -1.4181 -0.53389 -1.25823 -1.364 -1.413 0.784841 0.213336 0.319113 0.598127 0.112781 0.0164252 0.549338 0.664448 0.399088 0.549338 0.0164256 0.37814 0.501039 0.586774 0.480998 0.314325 -0.0164252 -0.112781 -0.664448 -0.549338 -0.213336 -0.784841 -0.598127 -0.319113 -0.586774 -0.501039 -0.314325 -0.480998 -0.549338 -0.399088 -0.37814 -0.0164256 
SCALARS global_div_diff double 1
LOOKUP_TABLE default
3.58372e-10 3.58372e-10 3.58372e-10 3.58372e-10 1.79965e-10 1.79965e-10 1.79965e-10 1.79965e-10 1.09509e-10 1.09509e-10 1.09509e-10 1.09509e-10 6.54366e-11 6.54366e-11 6.54366e-11 6.54366e-11 1.55001e-10 1.55001e-10 1.55001e-10 1.55001e-10 1.61068e-10 1.61068e-10 1.61068e-10 1.61068e-10 8.73944e-11 8.73944e-11 8.73944e-11 8.73944e-11 8.81949e-11 8.81949e-11 8.81949e-11 8.81949e-11 5.15486e-11 5.15486e-11 5.15486e-11 5.15486e-11 9.16671e-11 9.16671e-11 9.16671e-11 9.16671e-11 5.69474e-10 5.69474e-10 5.69474e-10 5.69474e-10 1.16211e-10 1.16211e-10 1.16211e-10 1.16211e-10 9.23575e-11 9.23575e-11 9.23575e-11 9.23575e-11 7.58429e-11 7.58429e-11 7.58429e-11 7.58429e-11 1.27687e-10 1.27687e-10 1.27687e-10 1.27687e-10 9.80584e-11 9.80584e-11 9.80584e-11 9.80584e-11 
SCALARS cell_div_diff double 1
LOOKUP_TABLE default
3.58372e-10 3.58372e-10 3.58372e-10 3.58372e-10 1.79965e-10 1.79965e-10 1.79965e-10 1.79965e-10 1.09507e-10 1.09507e-10 1.09507e-10 1.09507e-10 6.54369e-11 6.54369e-11 6.54369e-11 6.54369e-11 1.55001e-10 1.55001e-10 1.55001e-10 1.55001e-10 1.61068e-10 1.61068e-10 1.61068e-10 1.61068e-10 8.73938e-11 8.73938e-11 8.73938e-11 8.73938e-11 8.81945e-11 8.81945e-11 8.81945e-11 8.81945e-11 5.1549e-11 5.1549e-11 5.1549e-11 5.1549e-11 9.16665e-11 9.16665e-11 9.16665e-11 9.16665e-11 5.69474e-10 5.69474e-10 5.69474e-10 5.69474e-10 1.16211e-10 1.16211e-10 1.16211e-10 1.16211e-10 9.23575e-11 9.23575e-11 9.23575e-11 9.23575e-11 7.5843e-11 7.5843e-11 7.5843e-11 7.5843e-11 1.27686e-10 1.27686e-10 1.27686e-10 1.27686e-10 9.80584e-11 9.80584e-11 9.80584e-11 9.80584e-11 
SCALARS global_l2_diff double 1
LOOKUP_TABLE default
0.0353453 0.0353453 0.0353453 0.0353453 0.0769148 0.0769148 0.0769148 0.0769148 0.0769149 0.0769149 0.0769149 0.0769149 0.10141 0.10141 0.10141 0.10141 0.0769148 0.0769148 0.0769148 0.0769148 0.0353453 0.0353453 0.0353453 0.0353453 0.10141 0.10141 0.10141 0.10141 0.0769149 0.0769149 0.0769149 0.0769149 0.0769148 0.0769148 0.0769148 0.0769148 0.10141 0.10141 0.10141 0.10141 0.0353453 0.0353453 0.0353453 0.0353453 0.0769149 0.0769149 0.0769149 0.0769149 0.10141 0.10141 0.10141 0.10141 0.0769148 0.0769148 0.0769148 0.0769148 0.0769149 0.0769149 0.0769149 0.0769149 0.0353453 0.0353453 0.0353453 0.0353453 
SCALARS global_h1_diff double 1
LOOKUP_TABLE default
0.601128 0.601128 0.601128 0.601128 1.35424 1.35424 1.35424 1.35424 1.35424 1.35424 1.35424 1.35424 1.81724 1.81724 1.81724 1.81724 1.35424 1.35424 1.35424 1.35424 0.601128 0.601128 0.601128 0.601128 1.81724 1.81724 1.81724 1.81724 1.35424 1.35424 1.35424 1.35424 1.35424 1.35424 1.35424 1.35424 1.81724 1.81724 1.81724 1.81724 0.601128 0.601128 0.601128 0.601128 1.35424 1.35424 1.35424 1.35424 1.81724 1.81724 1.81724 1.81724 1.35424 1.35424 1.35424 1.35424 1.35424 1.35424 1.35424 1.35424 0.601128 0.601128 0.601128 0.601128 
