# vtk DataFile Version 3.0
#This file was generated by the deal.II library on 2017/9/21 at 11:19:25
ASCII
DATASET UNSTRUCTURED_GRID

POINTS 256 double
0 0 0
0.125 0 0
0 0.125 0
0.125 0.125 0
0.125 0 0
0.25 0 0
0.125 0.125 0
0.25 0.125 0
0 0.125 0
0.125 0.125 0
0 0.25 0
0.125 0.25 0
0.125 0.125 0
0.25 0.125 0
0.125 0.25 0
0.25 0.25 0
0.25 0 0
0.375 0 0
0.25 0.125 0
0.375 0.125 0
0.375 0 0
0.5 0 0
0.375 0.125 0
0.5 0.125 0
0.25 0.125 0
0.375 0.125 0
0.25 0.25 0
0.375 0.25 0
0.375 0.125 0
0.5 0.125 0
0.375 0.25 0
0.5 0.25 0
0 0.25 0
0.125 0.25 0
0 0.375 0
0.125 0.375 0
0.125 0.25 0
0.25 0.25 0
0.125 0.375 0
0.25 0.375 0
0 0.375 0
0.125 0.375 0
0 0.5 0
0.125 0.5 0
0.125 0.375 0
0.25 0.375 0
0.125 0.5 0
0.25 0.5 0
0.25 0.25 0
0.375 0.25 0
0.25 0.375 0
0.375 0.375 0
0.375 0.25 0
0.5 0.25 0
0.375 0.375 0
0.5 0.375 0
0.25 0.375 0
0.375 0.375 0
0.25 0.5 0
0.375 0.5 0
0.375 0.375 0
0.5 0.375 0
0.375 0.5 0
0.5 0.5 0
0.5 0 0
0.625 0 0
0.5 0.125 0
0.625 0.125 0
0.625 0 0
0.75 0 0
0.625 0.125 0
0.75 0.125 0
0.5 0.125 0
0.625 0.125 0
0.5 0.25 0
0.625 0.25 0
0.625 0.125 0
0.75 0.125 0
0.625 0.25 0
0.75 0.25 0
0.75 0 0
0.875 0 0
0.75 0.125 0
0.875 0.125 0
0.875 0 0
1 0 0
0.875 0.125 0
1 0.125 0
0.75 0.125 0
0.875 0.125 0
0.75 0.25 0
0.875 0.25 0
0.875 0.125 0
1 0.125 0
0.875 0.25 0
1 0.25 0
0.5 0.25 0
0.625 0.25 0
0.5 0.375 0
0.625 0.375 0
0.625 0.25 0
0.75 0.25 0
0.625 0.375 0
0.75 0.375 0
0.5 0.375 0
0.625 0.375 0
0.5 0.5 0
0.625 0.5 0
0.625 0.375 0
0.75 0.375 0
0.625 0.5 0
0.75 0.5 0
0.75 0.25 0
0.875 0.25 0
0.75 0.375 0
0.875 0.375 0
0.875 0.25 0
1 0.25 0
0.875 0.375 0
1 0.375 0
0.75 0.375 0
0.875 0.375 0
0.75 0.5 0
0.875 0.5 0
0.875 0.375 0
1 0.375 0
0.875 0.5 0
1 0.5 0
0 0.5 0
0.125 0.5 0
0 0.625 0
0.125 0.625 0
0.125 0.5 0
0.25 0.5 0
0.125 0.625 0
0.25 0.625 0
0 0.625 0
0.125 0.625 0
0 0.75 0
0.125 0.75 0
0.125 0.625 0
0.25 0.625 0
0.125 0.75 0
0.25 0.75 0
0.25 0.5 0
0.375 0.5 0
0.25 0.625 0
0.375 0.625 0
0.375 0.5 0
0.5 0.5 0
0.375 0.625 0
0.5 0.625 0
0.25 0.625 0
0.375 0.625 0
0.25 0.75 0
0.375 0.75 0
0.375 0.625 0
0.5 0.625 0
0.375 0.75 0
0.5 0.75 0
0 0.75 0
0.125 0.75 0
0 0.875 0
0.125 0.875 0
0.125 0.75 0
0.25 0.75 0
0.125 0.875 0
0.25 0.875 0
0 0.875 0
0.125 0.875 0
0 1 0
0.125 1 0
0.125 0.875 0
0.25 0.875 0
0.125 1 0
0.25 1 0
0.25 0.75 0
0.375 0.75 0
0.25 0.875 0
0.375 0.875 0
0.375 0.75 0
0.5 0.75 0
0.375 0.875 0
0.5 0.875 0
0.25 0.875 0
0.375 0.875 0
0.25 1 0
0.375 1 0
0.375 0.875 0
0.5 0.875 0
0.375 1 0
0.5 1 0
0.5 0.5 0
0.625 0.5 0
0.5 0.625 0
0.625 0.625 0
0.625 0.5 0
0.75 0.5 0
0.625 0.625 0
0.75 0.625 0
0.5 0.625 0
0.625 0.625 0
0.5 0.75 0
0.625 0.75 0
0.625 0.625 0
0.75 0.625 0
0.625 0.75 0
0.75 0.75 0
0.75 0.5 0
0.875 0.5 0
0.75 0.625 0
0.875 0.625 0
0.875 0.5 0
1 0.5 0
0.875 0.625 0
1 0.625 0
0.75 0.625 0
0.875 0.625 0
0.75 0.75 0
0.875 0.75 0
0.875 0.625 0
1 0.625 0
0.875 0.75 0
1 0.75 0
0.5 0.75 0
0.625 0.75 0
0.5 0.875 0
0.625 0.875 0
0.625 0.75 0
0.75 0.75 0
0.625 0.875 0
0.75 0.875 0
0.5 0.875 0
0.625 0.875 0
0.5 1 0
0.625 1 0
0.625 0.875 0
0.75 0.875 0
0.625 1 0
0.75 1 0
0.75 0.75 0
0.875 0.75 0
0.75 0.875 0
0.875 0.875 0
0.875 0.75 0
1 0.75 0
0.875 0.875 0
1 0.875 0
0.75 0.875 0
0.875 0.875 0
0.75 1 0
0.875 1 0
0.875 0.875 0
1 0.875 0
0.875 1 0
1 1 0

CELLS 64 320
4	0	1	3	2
4	4	5	7	6
4	8	9	11	10
4	12	13	15	14
4	16	17	19	18
4	20	21	23	22
4	24	25	27	26
4	28	29	31	30
4	32	33	35	34
4	36	37	39	38
4	40	41	43	42
4	44	45	47	46
4	48	49	51	50
4	52	53	55	54
4	56	57	59	58
4	60	61	63	62
4	64	65	67	66
4	68	69	71	70
4	72	73	75	74
4	76	77	79	78
4	80	81	83	82
4	84	85	87	86
4	88	89	91	90
4	92	93	95	94
4	96	97	99	98
4	100	101	103	102
4	104	105	107	106
4	108	109	111	110
4	112	113	115	114
4	116	117	119	118
4	120	121	123	122
4	124	125	127	126
4	128	129	131	130
4	132	133	135	134
4	136	137	139	138
4	140	141	143	142
4	144	145	147	146
4	148	149	151	150
4	152	153	155	154
4	156	157	159	158
4	160	161	163	162
4	164	165	167	166
4	168	169	171	170
4	172	173	175	174
4	176	177	179	178
4	180	181	183	182
4	184	185	187	186
4	188	189	191	190
4	192	193	195	194
4	196	197	199	198
4	200	201	203	202
4	204	205	207	206
4	208	209	211	210
4	212	213	215	214
4	216	217	219	218
4	220	221	223	222
4	224	225	227	226
4	228	229	231	230
4	232	233	235	234
4	236	237	239	238
4	240	241	243	242
4	244	245	247	246
4	248	249	251	250
4	252	253	255	254

CELL_TYPES 64
 9 9 9 9 9 9 9 9 9 9 9 9 9 9 9 9 9 9 9 9 9 9 9 9 9 9 9 9 9 9 9 9 9 9 9 9 9 9 9 9 9 9 9 9 9 9 9 9 9 9 9 9 9 9 9 9 9 9 9 9 9 9 9 9
POINT_DATA 256
VECTORS velocity double
0 0 0
0.00423612 0 0
0 -0.00423612 0
0.327091 -0.327091 0
0.00423612 0 0
0.0122989 0 0
0.327091 -0.331528 0
1.11436 -0.463804 0
0 -0.00423612 0
0.331528 -0.327091 0
0 -0.0122989 0
0.463804 -1.11436 0
0.331528 -0.331528 0
1.13133 -0.463804 0
0.463804 -1.13133 0
1.58764 -1.58764 0
0.0122989 0 0
0.0199314 0 0
1.11436 -0.463833 0
1.90078 -0.330219 0
0.0199314 0 0
0.0230799 0 0
1.90078 -0.325494 0
2.22648 -0.00335315 0
1.13133 -0.463833 0
1.93055 -0.330219 0
1.58764 -1.58768 0
2.71347 -1.13142 0
1.93055 -0.325494 0
2.26157 -0.00335315 0
2.71347 -1.11435 0
3.18005 -0.0120894 0
0 -0.0122989 0
0.463833 -1.11436 0
0 -0.0199314 0
0.330219 -1.90078 0
0.463833 -1.13133 0
1.58768 -1.58764 0
0.330219 -1.93055 0
1.13142 -2.71347 0
0 -0.0199314 0
0.325494 -1.90078 0
0 -0.0230799 0
0.00335315 -2.22648 0
0.325494 -1.93055 0
1.11435 -2.71347 0
0.00335315 -2.26157 0
0.0120894 -3.18005 0
1.58768 -1.58768 0
2.71358 -1.13142 0
1.13142 -2.71358 0
1.93477 -1.93477 0
2.71358 -1.11435 0
3.18022 -0.0120894 0
1.93477 -1.90528 0
2.26784 -0.0208696 0
1.11435 -2.71358 0
1.90528 -1.93477 0
0.0120894 -3.18022 0
0.0208696 -2.26784 0
1.90528 -1.90528 0
2.2332 -0.0208696 0
0.0208696 -2.2332 0
0.0245138 -0.0245138 0
0.0230799 0 0
0.0199314 0 0
2.22648 0.00335315 0
1.90078 0.325494 0
0.0199314 0 0
0.0122989 0 0
1.90078 0.330219 0
1.11436 0.463833 0
2.26157 0.00335315 0
1.93055 0.325494 0
3.18005 0.0120894 0
2.71347 1.11435 0
1.93055 0.330219 0
1.13133 0.463833 0
2.71347 1.13142 0
1.58764 1.58768 0
0.0122989 0 0
0.00423612 0 0
1.11436 0.463804 0
0.327091 0.331528 0
0.00423612 0 0
0 0 0
0.327091 0.327091 0
0 0.00423612 0
1.13133 0.463804 0
0.331528 0.331528 0
1.58764 1.58764 0
0.463804 1.13133 0
0.331528 0.327091 0
0 0.00423612 0
0.463804 1.11436 0
0 0.0122989 0
3.18022 0.0120894 0
2.71358 1.11435 0
2.26784 0.0208696 0
1.93477 1.90528 0
2.71358 1.13142 0
1.58768 1.58768 0
1.93477 1.93477 0
1.13142 2.71358 0
2.2332 0.0208696 0
1.90528 1.90528 0
0.0245138 0.0245138 0
0.0208696 2.2332 0
1.90528 1.93477 0
1.11435 2.71358 0
0.0208696 2.26784 0
0.0120894 3.18022 0
1.58768 1.58764 0
0.463833 1.13133 0
1.13142 2.71347 0
0.330219 1.93055 0
0.463833 1.11436 0
0 0.0122989 0
0.330219 1.90078 0
0 0.0199314 0
1.11435 2.71347 0
0.325494 1.93055 0
0.0120894 3.18005 0
0.00335315 2.26157 0
0.325494 1.90078 0
0 0.0199314 0
0.00335315 2.22648 0
0 0.0230799 0
0 -0.0230799 0
-0.00335315 -2.22648 0
0 -0.0199314 0
-0.325494 -1.90078 0
-0.00335315 -2.26157 0
-0.0120894 -3.18005 0
-0.325494 -1.93055 0
-1.11435 -2.71347 0
0 -0.0199314 0
-0.330219 -1.90078 0
0 -0.0122989 0
-0.463833 -1.11436 0
-0.330219 -1.93055 0
-1.13142 -2.71347 0
-0.463833 -1.13133 0
-1.58768 -1.58764 0
-0.0120894 -3.18022 0
-0.0208696 -2.26784 0
-1.11435 -2.71358 0
-1.90528 -1.93477 0
-0.0208696 -2.2332 0
-0.0245138 -0.0245138 0
-1.90528 -1.90528 0
-2.2332 -0.0208696 0
-1.13142 -2.71358 0
-1.93477 -1.93477 0
-1.58768 -1.58768 0
-2.71358 -1.13142 0
-1.93477 -1.90528 0
-2.26784 -0.0208696 0
-2.71358 -1.11435 0
-3.18022 -0.0120894 0
0 -0.0122989 0
-0.463804 -1.11436 0
0 -0.00423612 0
-0.331528 -0.327091 0
-0.463804 -1.13133 0
-1.58764 -1.58764 0
-0.331528 -0.331528 0
-1.13133 -0.463804 0
0 -0.00423612 0
-0.327091 -0.327091 0
0 0 0
-0.00423612 0 0
-0.327091 -0.331528 0
-1.11436 -0.463804 0
-0.00423612 0 0
-0.0122989 0 0
-1.58764 -1.58768 0
-2.71347 -1.13142 0
-1.13133 -0.463833 0
-1.93055 -0.330219 0
-2.71347 -1.11435 0
-3.18005 -0.0120894 0
-1.93055 -0.325494 0
-2.26157 -0.00335315 0
-1.11436 -0.463833 0
-1.90078 -0.330219 0
-0.0122989 0 0
-0.0199314 0 0
-1.90078 -0.325494 0
-2.22648 -0.00335315 0
-0.0199314 0 0
-0.0230799 0 0
-0.0245138 0.0245138 0
-0.0208696 2.2332 0
-2.2332 0.0208696 0
-1.90528 1.90528 0
-0.0208696 2.26784 0
-0.0120894 3.18022 0
-1.90528 1.93477 0
-1.11435 2.71358 0
-2.26784 0.0208696 0
-1.93477 1.90528 0
-3.18022 0.0120894 0
-2.71358 1.11435 0
-1.93477 1.93477 0
-1.13142 2.71358 0
-2.71358 1.13142 0
-1.58768 1.58768 0
-0.0120894 3.18005 0
-0.00335315 2.26157 0
-1.11435 2.71347 0
-0.325494 1.93055 0
-0.00335315 2.22648 0
0 0.0230799 0
-0.325494 1.90078 0
0 0.0199314 0
-1.13142 2.71347 0
-0.330219 1.93055 0
-1.58768 1.58764 0
-0.463833 1.13133 0
-0.330219 1.90078 0
0 0.0199314 0
-0.463833 1.11436 0
0 0.0122989 0
-3.18005 0.0120894 0
-2.71347 1.11435 0
-2.26157 0.00335315 0
-1.93055 0.325494 0
-2.71347 1.13142 0
-1.58764 1.58768 0
-1.93055 0.330219 0
-1.13133 0.463833 0
-2.22648 0.00335315 0
-1.90078 0.325494 0
-0.0230799 0 0
-0.0199314 0 0
-1.90078 0.330219 0
-1.11436 0.463833 0
-0.0199314 0 0
-0.0122989 0 0
-1.58764 1.58764 0
-0.463804 1.13133 0
-1.13133 0.463804 0
-0.331528 0.331528 0
-0.463804 1.11436 0
0 0.0122989 0
-0.331528 0.327091 0
0 0.00423612 0
-1.11436 0.463804 0
-0.327091 0.331528 0
-0.0122989 0 0
-0.00423612 0 0
-0.327091 0.327091 0
0 0.00423612 0
-0.00423612 0 0
0 0 0
SCALARS pressure double 1
LOOKUP_TABLE default
0.00202884 -0.0928079 0.485239 0.361122 -0.133708 -0.297322 0.281529 0.107762 0.529884 0.443589 1.02244 0.83809 0.363991 0.220306 0.727106 0.512732 -0.30321 -0.255536 0.104402 -0.0344264 -0.230745 -0.0176453 0.0407223 -0.0537371 0.217774 0.0419857 0.513176 0.198066 0.123538 -0.0582405 0.308765 -0.078426 1.03119 0.84301 1.20295 1.05989 0.731184 0.512295 0.983486 0.750892 1.1797 0.984749 1.04312 1.00269 0.901926 0.638647 1.00565 0.806408 0.512732 0.196964 0.750448 0.363991 0.308042 -0.0786309 0.440811 -0.0544591 0.63781 0.284307 0.803749 0.450636 0.361122 -0.0544866 0.446918 0.0020288 0.0176453 0.230745 0.0537371 -0.0407223 0.255536 0.30321 0.0344264 -0.104402 0.0582405 -0.123538 0.078426 -0.308765 -0.0419857 -0.217774 -0.198066 -0.513176 0.297322 0.133708 -0.107762 -0.281529 0.0928079 -0.00202881 -0.361122 -0.485239 -0.220306 -0.363991 -0.512732 -0.727106 -0.443589 -0.529884 -0.83809 -1.02244 0.0786309 -0.308042 0.0544591 -0.440811 -0.196964 -0.512732 -0.363991 -0.750448 0.0544866 -0.361122 -0.0020288 -0.446918 -0.284307 -0.63781 -0.450636 -0.803749 -0.512295 -0.731184 -0.750892 -0.983486 -0.84301 -1.03119 -1.05989 -1.20295 -0.638647 -0.901926 -0.806408 -1.00565 -0.984749 -1.1797 -1.00269 -1.04312 1.00782 0.893675 0.716668 0.768704 0.887612 0.646692 0.848656 0.704942 0.690317 0.690692 0.421908 0.500579 0.764229 0.590497 0.610205 0.517234 0.643612 0.337972 0.700473 0.444869 0.334193 0.0020288 0.361122 0.0582384 0.585643 0.363991 0.512732 0.361769 0.280249 0.0582048 0.245379 0.0815057 0.424921 0.500193 0.258723 0.285587 0.608986 0.512732 0.363991 0.338427 0.295871 0.361122 0.0020288 0.0965597 0.439531 0.445659 0.137453 0.300197 0.508238 0.358461 0.338753 0.261243 0.242471 0.0812895 0.176808 0.0598006 0.446833 0.334772 0.306073 0.257096 0.256768 0.0552825 0.23229 0.0176533 -0.0020288 -0.334193 -0.0582384 -0.361122 -0.337972 -0.643612 -0.444869 -0.700473 -0.0582048 -0.280249 -0.0815057 -0.245379 -0.363991 -0.585643 -0.361769 -0.512732 -0.646692 -0.887612 -0.704942 -0.848656 -0.893675 -1.00782 -0.768704 -0.716668 -0.590497 -0.764229 -0.517234 -0.610205 -0.690692 -0.690317 -0.500579 -0.421908 -0.0812895 -0.242471 -0.0598006 -0.176808 -0.358461 -0.508238 -0.261243 -0.338753 -0.0552825 -0.256768 -0.0176533 -0.23229 -0.334772 -0.446833 -0.257096 -0.306073 -0.512732 -0.608986 -0.338427 -0.363991 -0.500193 -0.424921 -0.285587 -0.258723 -0.445659 -0.439531 -0.300197 -0.137453 -0.361122 -0.295871 -0.0965597 -0.00202885 
SCALARS global_div_diff double 1
LOOKUP_TABLE default
4.24432e-10 4.24432e-10 4.24432e-10 4.24432e-10 3.94245e-10 3.94245e-10 3.94245e-10 3.94245e-10 2.02845e-10 2.02845e-10 2.02845e-10 2.02845e-10 1.77739e-10 1.77739e-10 1.77739e-10 1.77739e-10 6.06798e-10 6.06798e-10 6.06798e-10 6.06798e-10 4.77733e-10 4.77733e-10 4.77733e-10 4.77733e-10 1.3308e-10 1.3308e-10 1.3308e-10 1.3308e-10 8.11993e-11 8.11993e-11 8.11993e-11 8.11993e-11 5.45497e-10 5.45497e-10 5.45497e-10 5.45497e-10 1.28586e-10 1.28586e-10 1.28586e-10 1.28586e-10 1.17419e-10 1.17419e-10 1.17419e-10 1.17419e-10 9.43491e-11 9.43491e-11 9.43491e-11 9.43491e-11 8.74034e-11 8.74034e-11 8.74034e-11 8.74034e-11 1.23061e-10 1.23061e-10 1.23061e-10 1.23061e-10 1.13246e-10 1.13246e-10 1.13246e-10 1.13246e-10 1.69468e-10 1.69468e-10 1.69468e-10 1.69468e-10 4.78966e-10 4.78966e-10 4.78966e-10 4.78966e-10 6.04385e-10 6.04385e-10 6.04385e-10 6.04385e-10 8.21289e-11 8.21289e-11 8.21289e-11 8.21289e-11 1.34198e-10 1.34198e-10 1.34198e-10 1.34198e-10 4.0293e-10 4.0293e-10 4.0293e-10 4.0293e-10 4.05097e-10 4.05097e-10 4.05097e-10 4.05097e-10 1.80721e-10 1.80721e-10 1.80721e-10 1.80721e-10 2.01834e-10 2.01834e-10 2.01834e-10 2.01834e-10 1.16984e-10 1.16984e-10 1.16984e-10 1.16984e-10 8.817e-11 8.817e-11 8.817e-11 8.817e-11 1.66798e-10 1.66798e-10 1.66798e-10 1.66798e-10 1.1538e-10 1.1538e-10 1.1538e-10 1.1538e-10 1.18631e-10 1.18631e-10 1.18631e-10 1.18631e-10 5.34928e-10 5.34928e-10 5.34928e-10 5.34928e-10 9.66473e-11 9.66473e-11 9.66473e-11 9.66473e-11 1.30635e-10 1.30635e-10 1.30635e-10 1.30635e-10 1.79102e-10 1.79102e-10 1.79102e-10 1.79102e-10 9.05372e-11 9.05372e-11 9.05372e-11 9.05372e-11 2.7819e-10 2.7819e-10 2.7819e-10 2.7819e-10 1.08983e-10 1.08983e-10 1.08983e-10 1.08983e-10 1.28047e-10 1.28047e-10 1.28047e-10 1.28047e-10 1.55072e-10 1.55072e-10 1.55072e-10 1.55072e-10 8.31933e-11 8.31933e-11 8.31933e-11 8.31933e-11 9.63116e-11 9.63116e-11 9.63116e-11 9.63116e-11 2.36179e-10 2.36179e-10 2.36179e-10 2.36179e-10 1.69532e-10 1.69532e-10 1.69532e-10 1.69532e-10 3.69282e-10 3.69282e-10 3.69282e-10 3.69282e-10 4.51234e-10 4.51234e-10 4.51234e-10 4.51234e-10 1.21473e-10 1.21473e-10 1.21473e-10 1.21473e-10 5.9347e-11 5.9347e-11 5.9347e-11 5.9347e-11 3.43646e-10 3.43646e-10 3.43646e-10 3.43646e-10 4.96676e-10 4.96676e-10 4.96676e-10 4.96676e-10 1.56021e-10 1.56021e-10 1.56021e-10 1.56021e-10 1.28467e-10 1.28467e-10 1.28467e-10 1.28467e-10 9.40816e-11 9.40816e-11 9.40816e-11 9.40816e-11 8.45957e-11 8.45957e-11 8.45957e-11 8.45957e-11 9.17431e-11 9.17431e-11 9.17431e-11 9.17431e-11 1.91352e-10 1.91352e-10 1.91352e-10 1.91352e-10 1.08439e-10 1.08439e-10 1.08439e-10 1.08439e-10 2.75123e-10 2.75123e-10 2.75123e-10 2.75123e-10 6.6208e-11 6.6208e-11 6.6208e-11 6.6208e-11 1.16e-10 1.16e-10 1.16e-10 1.16e-10 4.94144e-10 4.94144e-10 4.94144e-10 4.94144e-10 3.45667e-10 3.45667e-10 3.45667e-10 3.45667e-10 1.61393e-10 1.61393e-10 1.61393e-10 1.61393e-10 2.60492e-10 2.60492e-10 2.60492e-10 2.60492e-10 4.31946e-10 4.31946e-10 4.31946e-10 4.31946e-10 4.36565e-10 4.36565e-10 4.36565e-10 4.36565e-10 
SCALARS cell_div_diff double 1
LOOKUP_TABLE default
4.24432e-10 4.24432e-10 4.24432e-10 4.24432e-10 3.94245e-10 3.94245e-10 3.94245e-10 3.94245e-10 2.02845e-10 2.02845e-10 2.02845e-10 2.02845e-10 1.77739e-10 1.77739e-10 1.77739e-10 1.77739e-10 6.06798e-10 6.06798e-10 6.06798e-10 6.06798e-10 4.77733e-10 4.77733e-10 4.77733e-10 4.77733e-10 1.3308e-10 1.3308e-10 1.3308e-10 1.3308e-10 8.11983e-11 8.11983e-11 8.11983e-11 8.11983e-11 5.45497e-10 5.45497e-10 5.45497e-10 5.45497e-10 1.28587e-10 1.28587e-10 1.28587e-10 1.28587e-10 1.17419e-10 1.17419e-10 1.17419e-10 1.17419e-10 9.43501e-11 9.43501e-11 9.43501e-11 9.43501e-11 8.74028e-11 8.74028e-11 8.74028e-11 8.74028e-11 1.23061e-10 1.23061e-10 1.23061e-10 1.23061e-10 1.13244e-10 1.13244e-10 1.13244e-10 1.13244e-10 1.69468e-10 1.69468e-10 1.69468e-10 1.69468e-10 4.78966e-10 4.78966e-10 4.78966e-10 4.78966e-10 6.04385e-10 6.04385e-10 6.04385e-10 6.04385e-10 8.21289e-11 8.21289e-11 8.21289e-11 8.21289e-11 1.34199e-10 1.34199e-10 1.34199e-10 1.34199e-10 4.02931e-10 4.02931e-10 4.02931e-10 4.02931e-10 4.05097e-10 4.05097e-10 4.05097e-10 4.05097e-10 1.8072e-10 1.8072e-10 1.8072e-10 1.8072e-10 2.01834e-10 2.01834e-10 2.01834e-10 2.01834e-10 1.16984e-10 1.16984e-10 1.16984e-10 1.16984e-10 8.81704e-11 8.81704e-11 8.81704e-11 8.81704e-11 1.66798e-10 1.66798e-10 1.66798e-10 1.66798e-10 1.15379e-10 1.15379e-10 1.15379e-10 1.15379e-10 1.18632e-10 1.18632e-10 1.18632e-10 1.18632e-10 5.34928e-10 5.34928e-10 5.34928e-10 5.34928e-10 9.66479e-11 9.66479e-11 9.66479e-11 9.66479e-11 1.30635e-10 1.30635e-10 1.30635e-10 1.30635e-10 1.79102e-10 1.79102e-10 1.79102e-10 1.79102e-10 9.05373e-11 9.05373e-11 9.05373e-11 9.05373e-11 2.7819e-10 2.7819e-10 2.7819e-10 2.7819e-10 1.08982e-10 1.08982e-10 1.08982e-10 1.08982e-10 1.28047e-10 1.28047e-10 1.28047e-10 1.28047e-10 1.55071e-10 1.55071e-10 1.55071e-10 1.55071e-10 8.31949e-11 8.31949e-11 8.31949e-11 8.31949e-11 9.63118e-11 9.63118e-11 9.63118e-11 9.63118e-11 2.36179e-10 2.36179e-10 2.36179e-10 2.36179e-10 1.69532e-10 1.69532e-10 1.69532e-10 1.69532e-10 3.69282e-10 3.69282e-10 3.69282e-10 3.69282e-10 4.51234e-10 4.51234e-10 4.51234e-10 4.51234e-10 1.21473e-10 1.21473e-10 1.21473e-10 1.21473e-10 5.93471e-11 5.93471e-11 5.93471e-11 5.93471e-11 3.43646e-10 3.43646e-10 3.43646e-10 3.43646e-10 4.96676e-10 4.96676e-10 4.96676e-10 4.96676e-10 1.56021e-10 1.56021e-10 1.56021e-10 1.56021e-10 1.28467e-10 1.28467e-10 1.28467e-10 1.28467e-10 9.40817e-11 9.40817e-11 9.40817e-11 9.40817e-11 8.4596e-11 8.4596e-11 8.4596e-11 8.4596e-11 9.17436e-11 9.17436e-11 9.17436e-11 9.17436e-11 1.91352e-10 1.91352e-10 1.91352e-10 1.91352e-10 1.0844e-10 1.0844e-10 1.0844e-10 1.0844e-10 2.75123e-10 2.75123e-10 2.75123e-10 2.75123e-10 6.6208e-11 6.6208e-11 6.6208e-11 6.6208e-11 1.16e-10 1.16e-10 1.16e-10 1.16e-10 4.94144e-10 4.94144e-10 4.94144e-10 4.94144e-10 3.45667e-10 3.45667e-10 3.45667e-10 3.45667e-10 1.61393e-10 1.61393e-10 1.61393e-10 1.61393e-10 2.60492e-10 2.60492e-10 2.60492e-10 2.60492e-10 4.31946e-10 4.31946e-10 4.31946e-10 4.31946e-10 4.36565e-10 4.36565e-10 4.36565e-10 4.36565e-10 
SCALARS global_l2_diff double 1
LOOKUP_TABLE default
0.000706136 0.000706136 0.000706136 0.000706136 0.00261509 0.00261509 0.00261509 0.00261509 0.00261509 0.00261509 0.00261509 0.00261509 0.0077508 0.0077508 0.0077508 0.0077508 0.00494811 0.00494811 0.00494811 0.00494811 0.0065661 0.0065661 0.0065661 0.0065661 0.0123278 0.0123278 0.0123278 0.0123278 0.0150772 0.0150772 0.0150772 0.0150772 0.00494811 0.00494811 0.00494811 0.00494811 0.0123278 0.0123278 0.0123278 0.0123278 0.0065661 0.0065661 0.0065661 0.0065661 0.0150772 0.0150772 0.0150772 0.0150772 0.0154112 0.0154112 0.0154112 0.0154112 0.015303 0.015303 0.015303 0.015303 0.015303 0.015303 0.015303 0.015303 0.00867276 0.00867276 0.00867276 0.00867276 0.0065661 0.0065661 0.0065661 0.0065661 0.00494811 0.00494811 0.00494811 0.00494811 0.0150772 0.0150772 0.0150772 0.0150772 0.0123278 0.0123278 0.0123278 0.0123278 0.00261509 0.00261509 0.00261509 0.00261509 0.000706136 0.000706136 0.000706136 0.000706136 0.0077508 0.0077508 0.0077508 0.0077508 0.00261509 0.00261509 0.00261509 0.00261509 0.015303 0.015303 0.015303 0.015303 0.0154112 0.0154112 0.0154112 0.0154112 0.00867276 0.00867276 0.00867276 0.00867276 0.015303 0.015303 0.015303 0.015303 0.0123278 0.0123278 0.0123278 0.0123278 0.00494811 0.00494811 0.00494811 0.00494811 0.0150772 0.0150772 0.0150772 0.0150772 0.0065661 0.0065661 0.0065661 0.0065661 0.0065661 0.0065661 0.0065661 0.0065661 0.0150772 0.0150772 0.0150772 0.0150772 0.00494811 0.00494811 0.00494811 0.00494811 0.0123278 0.0123278 0.0123278 0.0123278 0.015303 0.015303 0.015303 0.015303 0.00867276 0.00867276 0.00867276 0.00867276 0.0154112 0.0154112 0.0154112 0.0154112 0.015303 0.015303 0.015303 0.015303 0.00261509 0.00261509 0.00261509 0.00261509 0.0077508 0.0077508 0.0077508 0.0077508 0.000706136 0.000706136 0.000706136 0.000706136 0.00261509 0.00261509 0.00261509 0.00261509 0.0123278 0.0123278 0.0123278 0.0123278 0.0150772 0.0150772 0.0150772 0.0150772 0.00494811 0.00494811 0.00494811 0.00494811 0.0065661 0.0065661 0.0065661 0.0065661 0.00867276 0.00867276 0.00867276 0.00867276 0.015303 0.015303 0.015303 0.015303 0.015303 0.015303 0.015303 0.015303 0.0154112 0.0154112 0.0154112 0.0154112 0.0150772 0.0150772 0.0150772 0.0150772 0.0065661 0.0065661 0.0065661 0.0065661 0.0123278 0.0123278 0.0123278 0.0123278 0.00494811 0.00494811 0.00494811 0.00494811 0.0150772 0.0150772 0.0150772 0.0150772 0.0123278 0.0123278 0.0123278 0.0123278 0.0065661 0.0065661 0.0065661 0.0065661 0.00494811 0.00494811 0.00494811 0.00494811 0.0077508 0.0077508 0.0077508 0.0077508 0.00261509 0.00261509 0.00261509 0.00261509 0.00261509 0.00261509 0.00261509 0.00261509 0.000706136 0.000706136 0.000706136 0.000706136 
SCALARS global_h1_diff double 1
LOOKUP_TABLE default
0.0244372 0.0244372 0.0244372 0.0244372 0.0858267 0.0858267 0.0858267 0.0858267 0.0858267 0.0858267 0.0858267 0.0858267 0.248509 0.248509 0.248509 0.248509 0.158446 0.158446 0.158446 0.158446 0.208233 0.208233 0.208233 0.208233 0.398108 0.398108 0.398108 0.398108 0.491032 0.491032 0.491032 0.491032 0.158446 0.158446 0.158446 0.158446 0.398108 0.398108 0.398108 0.398108 0.208233 0.208233 0.208233 0.208233 0.491032 0.491032 0.491032 0.491032 0.505049 0.505049 0.505049 0.505049 0.508645 0.508645 0.508645 0.508645 0.508645 0.508645 0.508645 0.508645 0.292858 0.292858 0.292858 0.292858 0.208233 0.208233 0.208233 0.208233 0.158446 0.158446 0.158446 0.158446 0.491032 0.491032 0.491032 0.491032 0.398108 0.398108 0.398108 0.398108 0.0858267 0.0858267 0.0858267 0.0858267 0.0244372 0.0244372 0.0244372 0.0244372 0.248509 0.248509 0.248509 0.248509 0.0858267 0.0858267 0.0858267 0.0858267 0.508645 0.508645 0.508645 0.508645 0.505049 0.505049 0.505049 0.505049 0.292858 0.292858 0.292858 0.292858 0.508645 0.508645 0.508645 0.508645 0.398108 0.398108 0.398108 0.398108 0.158446 0.158446 0.158446 0.158446 0.491032 0.491032 0.491032 0.491032 0.208233 0.208233 0.208233 0.208233 0.208233 0.208233 0.208233 0.208233 0.491032 0.491032 0.491032 0.491032 0.158446 0.158446 0.158446 0.158446 0.398108 0.398108 0.398108 0.398108 0.508645 0.508645 0.508645 0.508645 0.292858 0.292858 0.292858 0.292858 0.505049 0.505049 0.505049 0.505049 0.508645 0.508645 0.508645 0.508645 0.0858267 0.0858267 0.0858267 0.0858267 0.248509 0.248509 0.248509 0.248509 0.0244372 0.0244372 0.0244372 0.0244372 0.0858267 0.0858267 0.0858267 0.0858267 0.398108 0.398108 0.398108 0.398108 0.491032 0.491032 0.491032 0.491032 0.158446 0.158446 0.158446 0.158446 0.208233 0.208233 0.208233 0.208233 0.292858 0.292858 0.292858 0.292858 0.508645 0.508645 0.508645 0.508645 0.508645 0.508645 0.508645 0.508645 0.505049 0.505049 0.505049 0.505049 0.491032 0.491032 0.491032 0.491032 0.208233 0.208233 0.208233 0.208233 0.398108 0.398108 0.398108 0.398108 0.158446 0.158446 0.158446 0.158446 0.491032 0.491032 0.491032 0.491032 0.398108 0.398108 0.398108 0.398108 0.208233 0.208233 0.208233 0.208233 0.158446 0.158446 0.158446 0.158446 0.248509 0.248509 0.248509 0.248509 0.0858267 0.0858267 0.0858267 0.0858267 0.0858267 0.0858267 0.0858267 0.0858267 0.0244372 0.0244372 0.0244372 0.0244372 
