# vtk DataFile Version 3.0
#This file was generated by the deal.II library on 2017/9/21 at 11:18:05
ASCII
DATASET UNSTRUCTURED_GRID

POINTS 256 double
0 0 0
0.125 0 0
0 0.125 0
0.125 0.125 0
0.125 0 0
0.25 0 0
0.125 0.125 0
0.25 0.125 0
0 0.125 0
0.125 0.125 0
0 0.25 0
0.125 0.25 0
0.125 0.125 0
0.25 0.125 0
0.125 0.25 0
0.25 0.25 0
0.25 0 0
0.375 0 0
0.25 0.125 0
0.375 0.125 0
0.375 0 0
0.5 0 0
0.375 0.125 0
0.5 0.125 0
0.25 0.125 0
0.375 0.125 0
0.25 0.25 0
0.375 0.25 0
0.375 0.125 0
0.5 0.125 0
0.375 0.25 0
0.5 0.25 0
0 0.25 0
0.125 0.25 0
0 0.375 0
0.125 0.375 0
0.125 0.25 0
0.25 0.25 0
0.125 0.375 0
0.25 0.375 0
0 0.375 0
0.125 0.375 0
0 0.5 0
0.125 0.5 0
0.125 0.375 0
0.25 0.375 0
0.125 0.5 0
0.25 0.5 0
0.25 0.25 0
0.375 0.25 0
0.25 0.375 0
0.375 0.375 0
0.375 0.25 0
0.5 0.25 0
0.375 0.375 0
0.5 0.375 0
0.25 0.375 0
0.375 0.375 0
0.25 0.5 0
0.375 0.5 0
0.375 0.375 0
0.5 0.375 0
0.375 0.5 0
0.5 0.5 0
0.5 0 0
0.625 0 0
0.5 0.125 0
0.625 0.125 0
0.625 0 0
0.75 0 0
0.625 0.125 0
0.75 0.125 0
0.5 0.125 0
0.625 0.125 0
0.5 0.25 0
0.625 0.25 0
0.625 0.125 0
0.75 0.125 0
0.625 0.25 0
0.75 0.25 0
0.75 0 0
0.875 0 0
0.75 0.125 0
0.875 0.125 0
0.875 0 0
1 0 0
0.875 0.125 0
1 0.125 0
0.75 0.125 0
0.875 0.125 0
0.75 0.25 0
0.875 0.25 0
0.875 0.125 0
1 0.125 0
0.875 0.25 0
1 0.25 0
0.5 0.25 0
0.625 0.25 0
0.5 0.375 0
0.625 0.375 0
0.625 0.25 0
0.75 0.25 0
0.625 0.375 0
0.75 0.375 0
0.5 0.375 0
0.625 0.375 0
0.5 0.5 0
0.625 0.5 0
0.625 0.375 0
0.75 0.375 0
0.625 0.5 0
0.75 0.5 0
0.75 0.25 0
0.875 0.25 0
0.75 0.375 0
0.875 0.375 0
0.875 0.25 0
1 0.25 0
0.875 0.375 0
1 0.375 0
0.75 0.375 0
0.875 0.375 0
0.75 0.5 0
0.875 0.5 0
0.875 0.375 0
1 0.375 0
0.875 0.5 0
1 0.5 0
0 0.5 0
0.125 0.5 0
0 0.625 0
0.125 0.625 0
0.125 0.5 0
0.25 0.5 0
0.125 0.625 0
0.25 0.625 0
0 0.625 0
0.125 0.625 0
0 0.75 0
0.125 0.75 0
0.125 0.625 0
0.25 0.625 0
0.125 0.75 0
0.25 0.75 0
0.25 0.5 0
0.375 0.5 0
0.25 0.625 0
0.375 0.625 0
0.375 0.5 0
0.5 0.5 0
0.375 0.625 0
0.5 0.625 0
0.25 0.625 0
0.375 0.625 0
0.25 0.75 0
0.375 0.75 0
0.375 0.625 0
0.5 0.625 0
0.375 0.75 0
0.5 0.75 0
0 0.75 0
0.125 0.75 0
0 0.875 0
0.125 0.875 0
0.125 0.75 0
0.25 0.75 0
0.125 0.875 0
0.25 0.875 0
0 0.875 0
0.125 0.875 0
0 1 0
0.125 1 0
0.125 0.875 0
0.25 0.875 0
0.125 1 0
0.25 1 0
0.25 0.75 0
0.375 0.75 0
0.25 0.875 0
0.375 0.875 0
0.375 0.75 0
0.5 0.75 0
0.375 0.875 0
0.5 0.875 0
0.25 0.875 0
0.375 0.875 0
0.25 1 0
0.375 1 0
0.375 0.875 0
0.5 0.875 0
0.375 1 0
0.5 1 0
0.5 0.5 0
0.625 0.5 0
0.5 0.625 0
0.625 0.625 0
0.625 0.5 0
0.75 0.5 0
0.625 0.625 0
0.75 0.625 0
0.5 0.625 0
0.625 0.625 0
0.5 0.75 0
0.625 0.75 0
0.625 0.625 0
0.75 0.625 0
0.625 0.75 0
0.75 0.75 0
0.75 0.5 0
0.875 0.5 0
0.75 0.625 0
0.875 0.625 0
0.875 0.5 0
1 0.5 0
0.875 0.625 0
1 0.625 0
0.75 0.625 0
0.875 0.625 0
0.75 0.75 0
0.875 0.75 0
0.875 0.625 0
1 0.625 0
0.875 0.75 0
1 0.75 0
0.5 0.75 0
0.625 0.75 0
0.5 0.875 0
0.625 0.875 0
0.625 0.75 0
0.75 0.75 0
0.625 0.875 0
0.75 0.875 0
0.5 0.875 0
0.625 0.875 0
0.5 1 0
0.625 1 0
0.625 0.875 0
0.75 0.875 0
0.625 1 0
0.75 1 0
0.75 0.75 0
0.875 0.75 0
0.75 0.875 0
0.875 0.875 0
0.875 0.75 0
1 0.75 0
0.875 0.875 0
1 0.875 0
0.75 0.875 0
0.875 0.875 0
0.75 1 0
0.875 1 0
0.875 0.875 0
1 0.875 0
0.875 1 0
1 1 0

CELLS 64 320
4	0	1	3	2
4	4	5	7	6
4	8	9	11	10
4	12	13	15	14
4	16	17	19	18
4	20	21	23	22
4	24	25	27	26
4	28	29	31	30
4	32	33	35	34
4	36	37	39	38
4	40	41	43	42
4	44	45	47	46
4	48	49	51	50
4	52	53	55	54
4	56	57	59	58
4	60	61	63	62
4	64	65	67	66
4	68	69	71	70
4	72	73	75	74
4	76	77	79	78
4	80	81	83	82
4	84	85	87	86
4	88	89	91	90
4	92	93	95	94
4	96	97	99	98
4	100	101	103	102
4	104	105	107	106
4	108	109	111	110
4	112	113	115	114
4	116	117	119	118
4	120	121	123	122
4	124	125	127	126
4	128	129	131	130
4	132	133	135	134
4	136	137	139	138
4	140	141	143	142
4	144	145	147	146
4	148	149	151	150
4	152	153	155	154
4	156	157	159	158
4	160	161	163	162
4	164	165	167	166
4	168	169	171	170
4	172	173	175	174
4	176	177	179	178
4	180	181	183	182
4	184	185	187	186
4	188	189	191	190
4	192	193	195	194
4	196	197	199	198
4	200	201	203	202
4	204	205	207	206
4	208	209	211	210
4	212	213	215	214
4	216	217	219	218
4	220	221	223	222
4	224	225	227	226
4	228	229	231	230
4	232	233	235	234
4	236	237	239	238
4	240	241	243	242
4	244	245	247	246
4	248	249	251	250
4	252	253	255	254

CELL_TYPES 64
 9 9 9 9 9 9 9 9 9 9 9 9 9 9 9 9 9 9 9 9 9 9 9 9 9 9 9 9 9 9 9 9 9 9 9 9 9 9 9 9 9 9 9 9 9 9 9 9 9 9 9 9 9 9 9 9 9 9 9 9 9 9 9 9
POINT_DATA 256
VECTORS velocity double
0 0 0
0.119691 0 0
0 -0.119691 0
0.119691 -0.119691 0
0.119691 0 0
0.35236 0 0
0.119691 -0.232669 0
0.35236 -0.232669 0
0 -0.119691 0
0.232669 -0.119691 0
0 -0.35236 0
0.232669 -0.35236 0
0.232669 -0.232669 0
0.837917 -0.232669 0
0.232669 -0.837917 0
0.837917 -0.837917 0
0.35236 0 0
0.575245 0 0
0.35236 -0.222885 0
0.575245 -0.222885 0
0.575245 0 0
0.66675 0 0
0.575245 -0.0915045 0
0.66675 -0.0915045 0
0.837917 -0.222885 0
1.45232 -0.222885 0
0.837917 -0.837292 0
1.45232 -0.837292 0
1.45232 -0.0915045 0
1.70797 -0.0915045 0
1.45232 -0.347153 0
1.70797 -0.347153 0
0 -0.35236 0
0.222885 -0.35236 0
0 -0.575245 0
0.222885 -0.575245 0
0.222885 -0.837917 0
0.837292 -0.837917 0
0.222885 -1.45232 0
0.837292 -1.45232 0
0 -0.575245 0
0.0915045 -0.575245 0
0 -0.66675 0
0.0915045 -0.66675 0
0.0915045 -1.45232 0
0.347153 -1.45232 0
0.0915045 -1.70797 0
0.347153 -1.70797 0
0.837292 -0.837292 0
1.47251 -0.837292 0
0.837292 -1.47251 0
1.47251 -1.47251 0
1.47251 -0.347153 0
1.73837 -0.347153 0
1.47251 -0.61301 0
1.73837 -0.61301 0
0.347153 -1.47251 0
0.61301 -1.47251 0
0.347153 -1.73837 0
0.61301 -1.73837 0
0.61301 -0.61301 0
0.724539 -0.61301 0
0.61301 -0.724539 0
0.724539 -0.724539 0
0.66675 0 0
0.575245 0 0
0.66675 0.0915045 0
0.575245 0.0915045 0
0.575245 0 0
0.35236 0 0
0.575245 0.222885 0
0.35236 0.222885 0
1.70797 0.0915045 0
1.45232 0.0915045 0
1.70797 0.347153 0
1.45232 0.347153 0
1.45232 0.222885 0
0.837917 0.222885 0
1.45232 0.837292 0
0.837917 0.837292 0
0.35236 0 0
0.119691 0 0
0.35236 0.232669 0
0.119691 0.232669 0
0.119691 0 0
0 0 0
0.119691 0.119691 0
0 0.119691 0
0.837917 0.232669 0
0.232669 0.232669 0
0.837917 0.837917 0
0.232669 0.837917 0
0.232669 0.119691 0
0 0.119691 0
0.232669 0.35236 0
0 0.35236 0
1.73837 0.347153 0
1.47251 0.347153 0
1.73837 0.61301 0
1.47251 0.61301 0
1.47251 0.837292 0
0.837292 0.837292 0
1.47251 1.47251 0
0.837292 1.47251 0
0.724539 0.61301 0
0.61301 0.61301 0
0.724539 0.724539 0
0.61301 0.724539 0
0.61301 1.47251 0
0.347153 1.47251 0
0.61301 1.73837 0
0.347153 1.73837 0
0.837292 0.837917 0
0.222885 0.837917 0
0.837292 1.45232 0
0.222885 1.45232 0
0.222885 0.35236 0
0 0.35236 0
0.222885 0.575245 0
0 0.575245 0
0.347153 1.45232 0
0.0915045 1.45232 0
0.347153 1.70797 0
0.0915045 1.70797 0
0.0915045 0.575245 0
0 0.575245 0
0.0915045 0.66675 0
0 0.66675 0
0 -0.66675 0
-0.0915045 -0.66675 0
0 -0.575245 0
-0.0915045 -0.575245 0
-0.0915045 -1.70797 0
-0.347153 -1.70797 0
-0.0915045 -1.45232 0
-0.347153 -1.45232 0
0 -0.575245 0
-0.222885 -0.575245 0
0 -0.35236 0
-0.222885 -0.35236 0
-0.222885 -1.45232 0
-0.837292 -1.45232 0
-0.222885 -0.837917 0
-0.837292 -0.837917 0
-0.347153 -1.73837 0
-0.61301 -1.73837 0
-0.347153 -1.47251 0
-0.61301 -1.47251 0
-0.61301 -0.724539 0
-0.724539 -0.724539 0
-0.61301 -0.61301 0
-0.724539 -0.61301 0
-0.837292 -1.47251 0
-1.47251 -1.47251 0
-0.837292 -0.837292 0
-1.47251 -0.837292 0
-1.47251 -0.61301 0
-1.73837 -0.61301 0
-1.47251 -0.347153 0
-1.73837 -0.347153 0
0 -0.35236 0
-0.232669 -0.35236 0
0 -0.119691 0
-0.232669 -0.119691 0
-0.232669 -0.837917 0
-0.837917 -0.837917 0
-0.232669 -0.232669 0
-0.837917 -0.232669 0
0 -0.119691 0
-0.119691 -0.119691 0
0 0 0
-0.119691 0 0
-0.119691 -0.232669 0
-0.35236 -0.232669 0
-0.119691 0 0
-0.35236 0 0
-0.837917 -0.837292 0
-1.45232 -0.837292 0
-0.837917 -0.222885 0
-1.45232 -0.222885 0
-1.45232 -0.347153 0
-1.70797 -0.347153 0
-1.45232 -0.0915045 0
-1.70797 -0.0915045 0
-0.35236 -0.222885 0
-0.575245 -0.222885 0
-0.35236 0 0
-0.575245 0 0
-0.575245 -0.0915045 0
-0.66675 -0.0915045 0
-0.575245 0 0
-0.66675 0 0
-0.724539 0.724539 0
-0.61301 0.724539 0
-0.724539 0.61301 0
-0.61301 0.61301 0
-0.61301 1.73837 0
-0.347153 1.73837 0
-0.61301 1.47251 0
-0.347153 1.47251 0
-1.73837 0.61301 0
-1.47251 0.61301 0
-1.73837 0.347153 0
-1.47251 0.347153 0
-1.47251 1.47251 0
-0.837292 1.47251 0
-1.47251 0.837292 0
-0.837292 0.837292 0
-0.347153 1.70797 0
-0.0915045 1.70797 0
-0.347153 1.45232 0
-0.0915045 1.45232 0
-0.0915045 0.66675 0
0 0.66675 0
-0.0915045 0.575245 0
0 0.575245 0
-0.837292 1.45232 0
-0.222885 1.45232 0
-0.837292 0.837917 0
-0.222885 0.837917 0
-0.222885 0.575245 0
0 0.575245 0
-0.222885 0.35236 0
0 0.35236 0
-1.70797 0.347153 0
-1.45232 0.347153 0
-1.70797 0.0915045 0
-1.45232 0.0915045 0
-1.45232 0.837292 0
-0.837917 0.837292 0
-1.45232 0.222885 0
-0.837917 0.222885 0
-0.66675 0.0915045 0
-0.575245 0.0915045 0
-0.66675 0 0
-0.575245 0 0
-0.575245 0.222885 0
-0.35236 0.222885 0
-0.575245 0 0
-0.35236 0 0
-0.837917 0.837917 0
-0.232669 0.837917 0
-0.837917 0.232669 0
-0.232669 0.232669 0
-0.232669 0.35236 0
0 0.35236 0
-0.232669 0.119691 0
0 0.119691 0
-0.35236 0.232669 0
-0.119691 0.232669 0
-0.35236 0 0
-0.119691 0 0
-0.119691 0.119691 0
0 0.119691 0
-0.119691 0 0
0 0 0
SCALARS pressure double 1
LOOKUP_TABLE default
0.188897 0.188897 0.188897 0.188897 -1.86125 -1.86125 -1.86125 -1.86125 2.55933 2.55933 2.55933 2.55933 0.456039 0.456039 0.456039 0.456039 -2.50611 -2.50611 -2.50611 -2.50611 -1.13339 -1.13339 -1.13339 -1.13339 -0.442107 -0.442107 -0.442107 -0.442107 -0.289479 -0.289479 -0.289479 -0.289479 3.41819 3.41819 3.41819 3.41819 1.42933 1.42933 1.42933 1.42933 2.12061 2.12061 2.12061 2.12061 1.20156 1.20156 1.20156 1.20156 0.456039 0.456039 0.456039 0.456039 0.0843449 0.0843449 0.0843449 0.0843449 0.613729 0.613729 0.613729 0.613729 0.188897 0.188897 0.188897 0.188897 1.13339 1.13339 1.13339 1.13339 2.50611 2.50611 2.50611 2.50611 0.289479 0.289479 0.289479 0.289479 0.442107 0.442107 0.442107 0.442107 1.86125 1.86125 1.86125 1.86125 -0.188897 -0.188897 -0.188897 -0.188897 -0.456039 -0.456039 -0.456039 -0.456039 -2.55933 -2.55933 -2.55933 -2.55933 -0.0843449 -0.0843449 -0.0843449 -0.0843449 -0.456039 -0.456039 -0.456039 -0.456039 -0.188897 -0.188897 -0.188897 -0.188897 -0.613729 -0.613729 -0.613729 -0.613729 -1.42933 -1.42933 -1.42933 -1.42933 -3.41819 -3.41819 -3.41819 -3.41819 -1.20156 -1.20156 -1.20156 -1.20156 -2.12061 -2.12061 -2.12061 -2.12061 -0.221307 -0.221307 -0.221307 -0.221307 0.408595 0.408595 0.408595 0.408595 -1.80803 -1.80803 -1.80803 -1.80803 -0.0643118 -0.0643118 -0.0643118 -0.0643118 0.46214 0.46214 0.46214 0.46214 0.188897 0.188897 0.188897 0.188897 0.456039 0.456039 0.456039 0.456039 0.235934 0.235934 0.235934 0.235934 -1.48346 -1.48346 -1.48346 -1.48346 0.456039 0.456039 0.456039 0.456039 0.188897 0.188897 0.188897 0.188897 2.18153 2.18153 2.18153 2.18153 1.05154 1.05154 1.05154 1.05154 0.503483 0.503483 0.503483 0.503483 2.72011 2.72011 2.72011 2.72011 1.20853 1.20853 1.20853 1.20853 -0.188897 -0.188897 -0.188897 -0.188897 -0.46214 -0.46214 -0.46214 -0.46214 -0.235934 -0.235934 -0.235934 -0.235934 -0.456039 -0.456039 -0.456039 -0.456039 -0.408595 -0.408595 -0.408595 -0.408595 0.221307 0.221307 0.221307 0.221307 0.0643118 0.0643118 0.0643118 0.0643118 1.80803 1.80803 1.80803 1.80803 -0.503483 -0.503483 -0.503483 -0.503483 -1.05154 -1.05154 -1.05154 -1.05154 -1.20853 -1.20853 -1.20853 -1.20853 -2.72011 -2.72011 -2.72011 -2.72011 -0.456039 -0.456039 -0.456039 -0.456039 1.48346 1.48346 1.48346 1.48346 -2.18153 -2.18153 -2.18153 -2.18153 -0.188897 -0.188897 -0.188897 -0.188897 
SCALARS global_div_diff double 1
LOOKUP_TABLE default
2.17121e-10 2.17121e-10 2.17121e-10 2.17121e-10 1.43107e-11 1.43107e-11 1.43107e-11 1.43107e-11 1.52582e-10 1.52582e-10 1.52582e-10 1.52582e-10 6.37725e-11 6.37725e-11 6.37725e-11 6.37725e-11 5.36254e-11 5.36254e-11 5.36254e-11 5.36254e-11 1.03035e-10 1.03035e-10 1.03035e-10 1.03035e-10 1.50546e-13 1.50546e-13 1.50546e-13 1.50546e-13 5.25657e-12 5.25657e-12 5.25657e-12 5.25657e-12 2.27132e-11 2.27132e-11 2.27132e-11 2.27132e-11 2.91864e-11 2.91864e-11 2.91864e-11 2.91864e-11 6.54184e-12 6.54184e-12 6.54184e-12 6.54184e-12 6.21546e-11 6.21546e-11 6.21546e-11 6.21546e-11 6.6105e-11 6.6105e-11 6.6105e-11 6.6105e-11 1.22902e-11 1.22902e-11 1.22902e-11 1.22902e-11 4.80763e-11 4.80763e-11 4.80763e-11 4.80763e-11 3.20373e-11 3.20373e-11 3.20373e-11 3.20373e-11 1.24959e-10 1.24959e-10 1.24959e-10 1.24959e-10 2.78128e-11 2.78128e-11 2.78128e-11 2.78128e-11 1.61394e-11 1.61394e-11 1.61394e-11 1.61394e-11 2.21708e-11 2.21708e-11 2.21708e-11 2.21708e-11 1.01814e-10 1.01814e-10 1.01814e-10 1.01814e-10 9.22887e-12 9.22887e-12 9.22887e-12 9.22887e-12 4.92882e-11 4.92882e-11 4.92882e-11 4.92882e-11 6.28324e-11 6.28324e-11 6.28324e-11 6.28324e-11 2.36254e-11 2.36254e-11 2.36254e-11 2.36254e-11 1.32211e-11 1.32211e-11 1.32211e-11 1.32211e-11 1.74519e-11 1.74519e-11 1.74519e-11 1.74519e-11 6.78264e-11 6.78264e-11 6.78264e-11 6.78264e-11 3.85653e-11 3.85653e-11 3.85653e-11 3.85653e-11 9.45669e-12 9.45669e-12 9.45669e-12 9.45669e-12 3.63748e-11 3.63748e-11 3.63748e-11 3.63748e-11 3.28432e-12 3.28432e-12 3.28432e-12 3.28432e-12 2.24758e-11 2.24758e-11 2.24758e-11 2.24758e-11 1.19561e-11 1.19561e-11 1.19561e-11 1.19561e-11 6.62821e-11 6.62821e-11 6.62821e-11 6.62821e-11 1.99364e-11 1.99364e-11 1.99364e-11 1.99364e-11 1.6821e-11 1.6821e-11 1.6821e-11 1.6821e-11 1.6056e-11 1.6056e-11 1.6056e-11 1.6056e-11 1.40813e-11 1.40813e-11 1.40813e-11 1.40813e-11 4.82064e-12 4.82064e-12 4.82064e-12 4.82064e-12 1.06181e-11 1.06181e-11 1.06181e-11 1.06181e-11 7.88474e-11 7.88474e-11 7.88474e-11 7.88474e-11 1.53471e-10 1.53471e-10 1.53471e-10 1.53471e-10 2.6045e-10 2.6045e-10 2.6045e-10 2.6045e-10 9.6594e-11 9.6594e-11 9.6594e-11 9.6594e-11 3.69483e-11 3.69483e-11 3.69483e-11 3.69483e-11 2.9092e-12 2.9092e-12 2.9092e-12 2.9092e-12 1.09585e-10 1.09585e-10 1.09585e-10 1.09585e-10 1.75071e-11 1.75071e-11 1.75071e-11 1.75071e-11 5.18318e-11 5.18318e-11 5.18318e-11 5.18318e-11 2.18575e-11 2.18575e-11 2.18575e-11 2.18575e-11 4.36584e-12 4.36584e-12 4.36584e-12 4.36584e-12 2.47666e-11 2.47666e-11 2.47666e-11 2.47666e-11 1.91549e-11 1.91549e-11 1.91549e-11 1.91549e-11 4.54753e-11 4.54753e-11 4.54753e-11 4.54753e-11 5.31226e-11 5.31226e-11 5.31226e-11 5.31226e-11 1.27374e-11 1.27374e-11 1.27374e-11 1.27374e-11 2.85169e-11 2.85169e-11 2.85169e-11 2.85169e-11 9.09011e-11 9.09011e-11 9.09011e-11 9.09011e-11 4.76647e-12 4.76647e-12 4.76647e-12 4.76647e-12 7.14793e-11 7.14793e-11 7.14793e-11 7.14793e-11 9.97166e-11 9.97166e-11 9.97166e-11 9.97166e-11 1.47174e-10 1.47174e-10 1.47174e-10 1.47174e-10 5.26917e-11 5.26917e-11 5.26917e-11 5.26917e-11 
SCALARS cell_div_diff double 1
LOOKUP_TABLE default
2.17121e-10 2.17121e-10 2.17121e-10 2.17121e-10 1.43107e-11 1.43107e-11 1.43107e-11 1.43107e-11 1.52582e-10 1.52582e-10 1.52582e-10 1.52582e-10 6.37725e-11 6.37725e-11 6.37725e-11 6.37725e-11 5.36254e-11 5.36254e-11 5.36254e-11 5.36254e-11 1.03035e-10 1.03035e-10 1.03035e-10 1.03035e-10 1.50546e-13 1.50546e-13 1.50546e-13 1.50546e-13 5.25657e-12 5.25657e-12 5.25657e-12 5.25657e-12 2.27133e-11 2.27133e-11 2.27133e-11 2.27133e-11 2.91864e-11 2.91864e-11 2.91864e-11 2.91864e-11 6.54192e-12 6.54192e-12 6.54192e-12 6.54192e-12 6.21546e-11 6.21546e-11 6.21546e-11 6.21546e-11 6.6105e-11 6.6105e-11 6.6105e-11 6.6105e-11 1.22903e-11 1.22903e-11 1.22903e-11 1.22903e-11 4.80763e-11 4.80763e-11 4.80763e-11 4.80763e-11 3.20373e-11 3.20373e-11 3.20373e-11 3.20373e-11 1.24959e-10 1.24959e-10 1.24959e-10 1.24959e-10 2.78128e-11 2.78128e-11 2.78128e-11 2.78128e-11 1.61394e-11 1.61394e-11 1.61394e-11 1.61394e-11 2.21708e-11 2.21708e-11 2.21708e-11 2.21708e-11 1.01814e-10 1.01814e-10 1.01814e-10 1.01814e-10 9.22887e-12 9.22887e-12 9.22887e-12 9.22887e-12 4.92881e-11 4.92881e-11 4.92881e-11 4.92881e-11 6.28324e-11 6.28324e-11 6.28324e-11 6.28324e-11 2.36254e-11 2.36254e-11 2.36254e-11 2.36254e-11 1.32211e-11 1.32211e-11 1.32211e-11 1.32211e-11 1.74519e-11 1.74519e-11 1.74519e-11 1.74519e-11 6.78263e-11 6.78263e-11 6.78263e-11 6.78263e-11 3.85655e-11 3.85655e-11 3.85655e-11 3.85655e-11 9.45669e-12 9.45669e-12 9.45669e-12 9.45669e-12 3.63748e-11 3.63748e-11 3.63748e-11 3.63748e-11 3.28426e-12 3.28426e-12 3.28426e-12 3.28426e-12 2.24757e-11 2.24757e-11 2.24757e-11 2.24757e-11 1.19561e-11 1.19561e-11 1.19561e-11 1.19561e-11 6.62821e-11 6.62821e-11 6.62821e-11 6.62821e-11 1.99364e-11 1.99364e-11 1.99364e-11 1.99364e-11 1.6821e-11 1.6821e-11 1.6821e-11 1.6821e-11 1.6056e-11 1.6056e-11 1.6056e-11 1.6056e-11 1.40813e-11 1.40813e-11 1.40813e-11 1.40813e-11 4.82059e-12 4.82059e-12 4.82059e-12 4.82059e-12 1.06181e-11 1.06181e-11 1.06181e-11 1.06181e-11 7.88474e-11 7.88474e-11 7.88474e-11 7.88474e-11 1.53471e-10 1.53471e-10 1.53471e-10 1.53471e-10 2.6045e-10 2.6045e-10 2.6045e-10 2.6045e-10 9.65937e-11 9.65937e-11 9.65937e-11 9.65937e-11 3.69483e-11 3.69483e-11 3.69483e-11 3.69483e-11 2.9092e-12 2.9092e-12 2.9092e-12 2.9092e-12 1.09585e-10 1.09585e-10 1.09585e-10 1.09585e-10 1.75071e-11 1.75071e-11 1.75071e-11 1.75071e-11 5.18318e-11 5.18318e-11 5.18318e-11 5.18318e-11 2.18574e-11 2.18574e-11 2.18574e-11 2.18574e-11 4.36584e-12 4.36584e-12 4.36584e-12 4.36584e-12 2.47666e-11 2.47666e-11 2.47666e-11 2.47666e-11 1.91549e-11 1.91549e-11 1.91549e-11 1.91549e-11 4.54751e-11 4.54751e-11 4.54751e-11 4.54751e-11 5.31226e-11 5.31226e-11 5.31226e-11 5.31226e-11 1.27374e-11 1.27374e-11 1.27374e-11 1.27374e-11 2.85166e-11 2.85166e-11 2.85166e-11 2.85166e-11 9.09011e-11 9.09011e-11 9.09011e-11 9.09011e-11 4.76647e-12 4.76647e-12 4.76647e-12 4.76647e-12 7.14793e-11 7.14793e-11 7.14793e-11 7.14793e-11 9.97166e-11 9.97166e-11 9.97166e-11 9.97166e-11 1.47174e-10 1.47174e-10 1.47174e-10 1.47174e-10 5.26917e-11 5.26917e-11 5.26917e-11 5.26917e-11 
SCALARS global_l2_diff double 1
LOOKUP_TABLE default
0.00839192 0.00839192 0.00839192 0.00839192 0.0332338 0.0332338 0.0332338 0.0332338 0.0332338 0.0332338 0.0332338 0.0332338 0.067484 0.067484 0.067484 0.067484 0.0714888 0.0714888 0.0714888 0.0714888 0.0989173 0.0989173 0.0989173 0.0989173 0.114103 0.114103 0.114103 0.114103 0.14622 0.14622 0.14622 0.14622 0.0714888 0.0714888 0.0714888 0.0714888 0.114103 0.114103 0.114103 0.114103 0.0989173 0.0989173 0.0989173 0.0989173 0.14622 0.14622 0.14622 0.14622 0.14444 0.14444 0.14444 0.14444 0.155746 0.155746 0.155746 0.155746 0.155746 0.155746 0.155746 0.155746 0.134455 0.134455 0.134455 0.134455 0.0989173 0.0989173 0.0989173 0.0989173 0.0714888 0.0714888 0.0714888 0.0714888 0.14622 0.14622 0.14622 0.14622 0.114103 0.114103 0.114103 0.114103 0.0332338 0.0332338 0.0332338 0.0332338 0.00839192 0.00839192 0.00839192 0.00839192 0.067484 0.067484 0.067484 0.067484 0.0332338 0.0332338 0.0332338 0.0332338 0.155746 0.155746 0.155746 0.155746 0.14444 0.14444 0.14444 0.14444 0.134455 0.134455 0.134455 0.134455 0.155746 0.155746 0.155746 0.155746 0.114103 0.114103 0.114103 0.114103 0.0714888 0.0714888 0.0714888 0.0714888 0.14622 0.14622 0.14622 0.14622 0.0989173 0.0989173 0.0989173 0.0989173 0.0989173 0.0989173 0.0989173 0.0989173 0.14622 0.14622 0.14622 0.14622 0.0714888 0.0714888 0.0714888 0.0714888 0.114103 0.114103 0.114103 0.114103 0.155746 0.155746 0.155746 0.155746 0.134455 0.134455 0.134455 0.134455 0.14444 0.14444 0.14444 0.14444 0.155746 0.155746 0.155746 0.155746 0.0332338 0.0332338 0.0332338 0.0332338 0.067484 0.067484 0.067484 0.067484 0.00839192 0.00839192 0.00839192 0.00839192 0.0332338 0.0332338 0.0332338 0.0332338 0.114103 0.114103 0.114103 0.114103 0.14622 0.14622 0.14622 0.14622 0.0714888 0.0714888 0.0714888 0.0714888 0.0989173 0.0989173 0.0989173 0.0989173 0.134455 0.134455 0.134455 0.134455 0.155746 0.155746 0.155746 0.155746 0.155746 0.155746 0.155746 0.155746 0.14444 0.14444 0.14444 0.14444 0.14622 0.14622 0.14622 0.14622 0.0989173 0.0989173 0.0989173 0.0989173 0.114103 0.114103 0.114103 0.114103 0.0714888 0.0714888 0.0714888 0.0714888 0.14622 0.14622 0.14622 0.14622 0.114103 0.114103 0.114103 0.114103 0.0989173 0.0989173 0.0989173 0.0989173 0.0714888 0.0714888 0.0714888 0.0714888 0.067484 0.067484 0.067484 0.067484 0.0332338 0.0332338 0.0332338 0.0332338 0.0332338 0.0332338 0.0332338 0.0332338 0.00839192 0.00839192 0.00839192 0.00839192 
SCALARS global_h1_diff double 1
LOOKUP_TABLE default
0.301834 0.301834 0.301834 0.301834 0.850985 0.850985 0.850985 0.850985 0.850985 0.850985 0.850985 0.850985 0.771786 0.771786 0.771786 0.771786 1.61039 1.61039 1.61039 1.61039 2.14326 2.14326 2.14326 2.14326 1.00116 1.00116 1.00116 1.00116 1.31327 1.31327 1.31327 1.31327 1.61039 1.61039 1.61039 1.61039 1.00116 1.00116 1.00116 1.00116 2.14326 2.14326 2.14326 2.14326 1.31327 1.31327 1.31327 1.31327 1.17959 1.17959 1.17959 1.17959 1.89187 1.89187 1.89187 1.89187 1.89187 1.89187 1.89187 1.89187 3.01357 3.01357 3.01357 3.01357 2.14326 2.14326 2.14326 2.14326 1.61039 1.61039 1.61039 1.61039 1.31327 1.31327 1.31327 1.31327 1.00116 1.00116 1.00116 1.00116 0.850985 0.850985 0.850985 0.850985 0.301834 0.301834 0.301834 0.301834 0.771786 0.771786 0.771786 0.771786 0.850985 0.850985 0.850985 0.850985 1.89187 1.89187 1.89187 1.89187 1.17959 1.17959 1.17959 1.17959 3.01357 3.01357 3.01357 3.01357 1.89187 1.89187 1.89187 1.89187 1.00116 1.00116 1.00116 1.00116 1.61039 1.61039 1.61039 1.61039 1.31327 1.31327 1.31327 1.31327 2.14326 2.14326 2.14326 2.14326 2.14326 2.14326 2.14326 2.14326 1.31327 1.31327 1.31327 1.31327 1.61039 1.61039 1.61039 1.61039 1.00116 1.00116 1.00116 1.00116 1.89187 1.89187 1.89187 1.89187 3.01357 3.01357 3.01357 3.01357 1.17959 1.17959 1.17959 1.17959 1.89187 1.89187 1.89187 1.89187 0.850985 0.850985 0.850985 0.850985 0.771786 0.771786 0.771786 0.771786 0.301834 0.301834 0.301834 0.301834 0.850985 0.850985 0.850985 0.850985 1.00116 1.00116 1.00116 1.00116 1.31327 1.31327 1.31327 1.31327 1.61039 1.61039 1.61039 1.61039 2.14326 2.14326 2.14326 2.14326 3.01357 3.01357 3.01357 3.01357 1.89187 1.89187 1.89187 1.89187 1.89187 1.89187 1.89187 1.89187 1.17959 1.17959 1.17959 1.17959 1.31327 1.31327 1.31327 1.31327 2.14326 2.14326 2.14326 2.14326 1.00116 1.00116 1.00116 1.00116 1.61039 1.61039 1.61039 1.61039 1.31327 1.31327 1.31327 1.31327 1.00116 1.00116 1.00116 1.00116 2.14326 2.14326 2.14326 2.14326 1.61039 1.61039 1.61039 1.61039 0.771786 0.771786 0.771786 0.771786 0.850985 0.850985 0.850985 0.850985 0.850985 0.850985 0.850985 0.850985 0.301834 0.301834 0.301834 0.301834 
