# vtk DataFile Version 3.0
#This file was generated by the deal.II library on 2017/9/21 at 11:18:05
ASCII
DATASET UNSTRUCTURED_GRID

POINTS 64 double
0 0 0
0.25 0 0
0 0.25 0
0.25 0.25 0
0.25 0 0
0.5 0 0
0.25 0.25 0
0.5 0.25 0
0 0.25 0
0.25 0.25 0
0 0.5 0
0.25 0.5 0
0.25 0.25 0
0.5 0.25 0
0.25 0.5 0
0.5 0.5 0
0.5 0 0
0.75 0 0
0.5 0.25 0
0.75 0.25 0
0.75 0 0
1 0 0
0.75 0.25 0
1 0.25 0
0.5 0.25 0
0.75 0.25 0
0.5 0.5 0
0.75 0.5 0
0.75 0.25 0
1 0.25 0
0.75 0.5 0
1 0.5 0
0 0.5 0
0.25 0.5 0
0 0.75 0
0.25 0.75 0
0.25 0.5 0
0.5 0.5 0
0.25 0.75 0
0.5 0.75 0
0 0.75 0
0.25 0.75 0
0 1 0
0.25 1 0
0.25 0.75 0
0.5 0.75 0
0.25 1 0
0.5 1 0
0.5 0.5 0
0.75 0.5 0
0.5 0.75 0
0.75 0.75 0
0.75 0.5 0
1 0.5 0
0.75 0.75 0
1 0.75 0
0.5 0.75 0
0.75 0.75 0
0.5 1 0
0.75 1 0
0.75 0.75 0
1 0.75 0
0.75 1 0
1 1 0

CELLS 16 80
4	0	1	3	2
4	4	5	7	6
4	8	9	11	10
4	12	13	15	14
4	16	17	19	18
4	20	21	23	22
4	24	25	27	26
4	28	29	31	30
4	32	33	35	34
4	36	37	39	38
4	40	41	43	42
4	44	45	47	46
4	48	49	51	50
4	52	53	55	54
4	56	57	59	58
4	60	61	63	62

CELL_TYPES 16
 9 9 9 9 9 9 9 9 9 9 9 9 9 9 9 9
POINT_DATA 64
VECTORS velocity double
0 0 0
0.693977 0 0
0 -0.693977 0
0.693977 -0.693977 0
0.693977 0 0
1.38432 0 0
0.693977 -0.690346 0
1.38432 -0.690346 0
0 -0.693977 0
0.690346 -0.693977 0
0 -1.38432 0
0.690346 -1.38432 0
0.690346 -0.690346 0
1.46421 -0.690346 0
0.690346 -1.46421 0
1.46421 -1.46421 0
1.38432 0 0
0.693977 0 0
1.38432 0.690346 0
0.693977 0.690346 0
0.693977 0 0
0 0 0
0.693977 0.693977 0
0 0.693977 0
1.46421 0.690346 0
0.690346 0.690346 0
1.46421 1.46421 0
0.690346 1.46421 0
0.690346 0.693977 0
0 0.693977 0
0.690346 1.38432 0
0 1.38432 0
0 -1.38432 0
-0.690346 -1.38432 0
0 -0.693977 0
-0.690346 -0.693977 0
-0.690346 -1.46421 0
-1.46421 -1.46421 0
-0.690346 -0.690346 0
-1.46421 -0.690346 0
0 -0.693977 0
-0.693977 -0.693977 0
0 0 0
-0.693977 0 0
-0.693977 -0.690346 0
-1.38432 -0.690346 0
-0.693977 0 0
-1.38432 0 0
-1.46421 1.46421 0
-0.690346 1.46421 0
-1.46421 0.690346 0
-0.690346 0.690346 0
-0.690346 1.38432 0
0 1.38432 0
-0.690346 0.693977 0
0 0.693977 0
-1.38432 0.690346 0
-0.693977 0.690346 0
-1.38432 0 0
-0.693977 0 0
-0.693977 0.693977 0
0 0.693977 0
-0.693977 0 0
0 0 0
SCALARS pressure double 1
LOOKUP_TABLE default
0.33581 0.33581 0.33581 0.33581 -1.0277 -1.0277 -1.0277 -1.0277 1.97752 1.97752 1.97752 1.97752 0.33581 0.33581 0.33581 0.33581 1.0277 1.0277 1.0277 1.0277 -0.33581 -0.33581 -0.33581 -0.33581 -0.33581 -0.33581 -0.33581 -0.33581 -1.97752 -1.97752 -1.97752 -1.97752 -0.356083 -0.356083 -0.356083 -0.356083 0.33581 0.33581 0.33581 0.33581 0.33581 0.33581 0.33581 0.33581 1.3059 1.3059 1.3059 1.3059 -0.33581 -0.33581 -0.33581 -0.33581 0.356083 0.356083 0.356083 0.356083 -1.3059 -1.3059 -1.3059 -1.3059 -0.33581 -0.33581 -0.33581 -0.33581 
SCALARS global_div_diff double 1
LOOKUP_TABLE default
7.04129e-11 7.04129e-11 7.04129e-11 7.04129e-11 2.32829e-11 2.32829e-11 2.32829e-11 2.32829e-11 1.29557e-11 1.29557e-11 1.29557e-11 1.29557e-11 4.49796e-12 4.49796e-12 4.49796e-12 4.49796e-12 5.99776e-12 5.99776e-12 5.99776e-12 5.99776e-12 6.09153e-11 6.09153e-11 6.09153e-11 6.09153e-11 4.63636e-11 4.63636e-11 4.63636e-11 4.63636e-11 4.67948e-12 4.67948e-12 4.67948e-12 4.67948e-12 3.81815e-11 3.81815e-11 3.81815e-11 3.81815e-11 1.34606e-11 1.34606e-11 1.34606e-11 1.34606e-11 7.25007e-11 7.25007e-11 7.25007e-11 7.25007e-11 1.13105e-11 1.13105e-11 1.13105e-11 1.13105e-11 4.83336e-11 4.83336e-11 4.83336e-11 4.83336e-11 2.26846e-11 2.26846e-11 2.26846e-11 2.26846e-11 2.70656e-11 2.70656e-11 2.70656e-11 2.70656e-11 6.29619e-11 6.29619e-11 6.29619e-11 6.29619e-11 
SCALARS cell_div_diff double 1
LOOKUP_TABLE default
7.04129e-11 7.04129e-11 7.04129e-11 7.04129e-11 2.32829e-11 2.32829e-11 2.32829e-11 2.32829e-11 1.29557e-11 1.29557e-11 1.29557e-11 1.29557e-11 4.49796e-12 4.49796e-12 4.49796e-12 4.49796e-12 5.99776e-12 5.99776e-12 5.99776e-12 5.99776e-12 6.09153e-11 6.09153e-11 6.09153e-11 6.09153e-11 4.63636e-11 4.63636e-11 4.63636e-11 4.63636e-11 4.67948e-12 4.67948e-12 4.67948e-12 4.67948e-12 3.81815e-11 3.81815e-11 3.81815e-11 3.81815e-11 1.34606e-11 1.34606e-11 1.34606e-11 1.34606e-11 7.25007e-11 7.25007e-11 7.25007e-11 7.25007e-11 1.13105e-11 1.13105e-11 1.13105e-11 1.13105e-11 4.83336e-11 4.83336e-11 4.83336e-11 4.83336e-11 2.26846e-11 2.26846e-11 2.26846e-11 2.26846e-11 2.70656e-11 2.70656e-11 2.70656e-11 2.70656e-11 6.29619e-11 6.29619e-11 6.29619e-11 6.29619e-11 
SCALARS global_l2_diff double 1
LOOKUP_TABLE default
0.0917943 0.0917943 0.0917943 0.0917943 0.260661 0.260661 0.260661 0.260661 0.260661 0.260661 0.260661 0.260661 0.348386 0.348386 0.348386 0.348386 0.260661 0.260661 0.260661 0.260661 0.0917943 0.0917943 0.0917943 0.0917943 0.348386 0.348386 0.348386 0.348386 0.260661 0.260661 0.260661 0.260661 0.260661 0.260661 0.260661 0.260661 0.348386 0.348386 0.348386 0.348386 0.0917943 0.0917943 0.0917943 0.0917943 0.260661 0.260661 0.260661 0.260661 0.348386 0.348386 0.348386 0.348386 0.260661 0.260661 0.260661 0.260661 0.260661 0.260661 0.260661 0.260661 0.0917943 0.0917943 0.0917943 0.0917943 
SCALARS global_h1_diff double 1
LOOKUP_TABLE default
1.6187 1.6187 1.6187 1.6187 3.23045 3.23045 3.23045 3.23045 3.23045 3.23045 3.23045 3.23045 4.26044 4.26044 4.26044 4.26044 3.23045 3.23045 3.23045 3.23045 1.6187 1.6187 1.6187 1.6187 4.26044 4.26044 4.26044 4.26044 3.23045 3.23045 3.23045 3.23045 3.23045 3.23045 3.23045 3.23045 4.26044 4.26044 4.26044 4.26044 1.6187 1.6187 1.6187 1.6187 3.23045 3.23045 3.23045 3.23045 4.26044 4.26044 4.26044 4.26044 3.23045 3.23045 3.23045 3.23045 3.23045 3.23045 3.23045 3.23045 1.6187 1.6187 1.6187 1.6187 
