# vtk DataFile Version 3.0
#This file was generated by the deal.II library on 2017/9/21 at 11:18:06
ASCII
DATASET UNSTRUCTURED_GRID

POINTS 4096 double
0 0 0
0.03125 0 0
0 0.03125 0
0.03125 0.03125 0
0.03125 0 0
0.0625 0 0
0.03125 0.03125 0
0.0625 0.03125 0
0 0.03125 0
0.03125 0.03125 0
0 0.0625 0
0.03125 0.0625 0
0.03125 0.03125 0
0.0625 0.03125 0
0.03125 0.0625 0
0.0625 0.0625 0
0.0625 0 0
0.09375 0 0
0.0625 0.03125 0
0.09375 0.03125 0
0.09375 0 0
0.125 0 0
0.09375 0.03125 0
0.125 0.03125 0
0.0625 0.03125 0
0.09375 0.03125 0
0.0625 0.0625 0
0.09375 0.0625 0
0.09375 0.03125 0
0.125 0.03125 0
0.09375 0.0625 0
0.125 0.0625 0
0 0.0625 0
0.03125 0.0625 0
0 0.09375 0
0.03125 0.09375 0
0.03125 0.0625 0
0.0625 0.0625 0
0.03125 0.09375 0
0.0625 0.09375 0
0 0.09375 0
0.03125 0.09375 0
0 0.125 0
0.03125 0.125 0
0.03125 0.09375 0
0.0625 0.09375 0
0.03125 0.125 0
0.0625 0.125 0
0.0625 0.0625 0
0.09375 0.0625 0
0.0625 0.09375 0
0.09375 0.09375 0
0.09375 0.0625 0
0.125 0.0625 0
0.09375 0.09375 0
0.125 0.09375 0
0.0625 0.09375 0
0.09375 0.09375 0
0.0625 0.125 0
0.09375 0.125 0
0.09375 0.09375 0
0.125 0.09375 0
0.09375 0.125 0
0.125 0.125 0
0.125 0 0
0.15625 0 0
0.125 0.03125 0
0.15625 0.03125 0
0.15625 0 0
0.1875 0 0
0.15625 0.03125 0
0.1875 0.03125 0
0.125 0.03125 0
0.15625 0.03125 0
0.125 0.0625 0
0.15625 0.0625 0
0.15625 0.03125 0
0.1875 0.03125 0
0.15625 0.0625 0
0.1875 0.0625 0
0.1875 0 0
0.21875 0 0
0.1875 0.03125 0
0.21875 0.03125 0
0.21875 0 0
0.25 0 0
0.21875 0.03125 0
0.25 0.03125 0
0.1875 0.03125 0
0.21875 0.03125 0
0.1875 0.0625 0
0.21875 0.0625 0
0.21875 0.03125 0
0.25 0.03125 0
0.21875 0.0625 0
0.25 0.0625 0
0.125 0.0625 0
0.15625 0.0625 0
0.125 0.09375 0
0.15625 0.09375 0
0.15625 0.0625 0
0.1875 0.0625 0
0.15625 0.09375 0
0.1875 0.09375 0
0.125 0.09375 0
0.15625 0.09375 0
0.125 0.125 0
0.15625 0.125 0
0.15625 0.09375 0
0.1875 0.09375 0
0.15625 0.125 0
0.1875 0.125 0
0.1875 0.0625 0
0.21875 0.0625 0
0.1875 0.09375 0
0.21875 0.09375 0
0.21875 0.0625 0
0.25 0.0625 0
0.21875 0.09375 0
0.25 0.09375 0
0.1875 0.09375 0
0.21875 0.09375 0
0.1875 0.125 0
0.21875 0.125 0
0.21875 0.09375 0
0.25 0.09375 0
0.21875 0.125 0
0.25 0.125 0
0 0.125 0
0.03125 0.125 0
0 0.15625 0
0.03125 0.15625 0
0.03125 0.125 0
0.0625 0.125 0
0.03125 0.15625 0
0.0625 0.15625 0
0 0.15625 0
0.03125 0.15625 0
0 0.1875 0
0.03125 0.1875 0
0.03125 0.15625 0
0.0625 0.15625 0
0.03125 0.1875 0
0.0625 0.1875 0
0.0625 0.125 0
0.09375 0.125 0
0.0625 0.15625 0
0.09375 0.15625 0
0.09375 0.125 0
0.125 0.125 0
0.09375 0.15625 0
0.125 0.15625 0
0.0625 0.15625 0
0.09375 0.15625 0
0.0625 0.1875 0
0.09375 0.1875 0
0.09375 0.15625 0
0.125 0.15625 0
0.09375 0.1875 0
0.125 0.1875 0
0 0.1875 0
0.03125 0.1875 0
0 0.21875 0
0.03125 0.21875 0
0.03125 0.1875 0
0.0625 0.1875 0
0.03125 0.21875 0
0.0625 0.21875 0
0 0.21875 0
0.03125 0.21875 0
0 0.25 0
0.03125 0.25 0
0.03125 0.21875 0
0.0625 0.21875 0
0.03125 0.25 0
0.0625 0.25 0
0.0625 0.1875 0
0.09375 0.1875 0
0.0625 0.21875 0
0.09375 0.21875 0
0.09375 0.1875 0
0.125 0.1875 0
0.09375 0.21875 0
0.125 0.21875 0
0.0625 0.21875 0
0.09375 0.21875 0
0.0625 0.25 0
0.09375 0.25 0
0.09375 0.21875 0
0.125 0.21875 0
0.09375 0.25 0
0.125 0.25 0
0.125 0.125 0
0.15625 0.125 0
0.125 0.15625 0
0.15625 0.15625 0
0.15625 0.125 0
0.1875 0.125 0
0.15625 0.15625 0
0.1875 0.15625 0
0.125 0.15625 0
0.15625 0.15625 0
0.125 0.1875 0
0.15625 0.1875 0
0.15625 0.15625 0
0.1875 0.15625 0
0.15625 0.1875 0
0.1875 0.1875 0
0.1875 0.125 0
0.21875 0.125 0
0.1875 0.15625 0
0.21875 0.15625 0
0.21875 0.125 0
0.25 0.125 0
0.21875 0.15625 0
0.25 0.15625 0
0.1875 0.15625 0
0.21875 0.15625 0
0.1875 0.1875 0
0.21875 0.1875 0
0.21875 0.15625 0
0.25 0.15625 0
0.21875 0.1875 0
0.25 0.1875 0
0.125 0.1875 0
0.15625 0.1875 0
0.125 0.21875 0
0.15625 0.21875 0
0.15625 0.1875 0
0.1875 0.1875 0
0.15625 0.21875 0
0.1875 0.21875 0
0.125 0.21875 0
0.15625 0.21875 0
0.125 0.25 0
0.15625 0.25 0
0.15625 0.21875 0
0.1875 0.21875 0
0.15625 0.25 0
0.1875 0.25 0
0.1875 0.1875 0
0.21875 0.1875 0
0.1875 0.21875 0
0.21875 0.21875 0
0.21875 0.1875 0
0.25 0.1875 0
0.21875 0.21875 0
0.25 0.21875 0
0.1875 0.21875 0
0.21875 0.21875 0
0.1875 0.25 0
0.21875 0.25 0
0.21875 0.21875 0
0.25 0.21875 0
0.21875 0.25 0
0.25 0.25 0
0.25 0 0
0.28125 0 0
0.25 0.03125 0
0.28125 0.03125 0
0.28125 0 0
0.3125 0 0
0.28125 0.03125 0
0.3125 0.03125 0
0.25 0.03125 0
0.28125 0.03125 0
0.25 0.0625 0
0.28125 0.0625 0
0.28125 0.03125 0
0.3125 0.03125 0
0.28125 0.0625 0
0.3125 0.0625 0
0.3125 0 0
0.34375 0 0
0.3125 0.03125 0
0.34375 0.03125 0
0.34375 0 0
0.375 0 0
0.34375 0.03125 0
0.375 0.03125 0
0.3125 0.03125 0
0.34375 0.03125 0
0.3125 0.0625 0
0.34375 0.0625 0
0.34375 0.03125 0
0.375 0.03125 0
0.34375 0.0625 0
0.375 0.0625 0
0.25 0.0625 0
0.28125 0.0625 0
0.25 0.09375 0
0.28125 0.09375 0
0.28125 0.0625 0
0.3125 0.0625 0
0.28125 0.09375 0
0.3125 0.09375 0
0.25 0.09375 0
0.28125 0.09375 0
0.25 0.125 0
0.28125 0.125 0
0.28125 0.09375 0
0.3125 0.09375 0
0.28125 0.125 0
0.3125 0.125 0
0.3125 0.0625 0
0.34375 0.0625 0
0.3125 0.09375 0
0.34375 0.09375 0
0.34375 0.0625 0
0.375 0.0625 0
0.34375 0.09375 0
0.375 0.09375 0
0.3125 0.09375 0
0.34375 0.09375 0
0.3125 0.125 0
0.34375 0.125 0
0.34375 0.09375 0
0.375 0.09375 0
0.34375 0.125 0
0.375 0.125 0
0.375 0 0
0.40625 0 0
0.375 0.03125 0
0.40625 0.03125 0
0.40625 0 0
0.4375 0 0
0.40625 0.03125 0
0.4375 0.03125 0
0.375 0.03125 0
0.40625 0.03125 0
0.375 0.0625 0
0.40625 0.0625 0
0.40625 0.03125 0
0.4375 0.03125 0
0.40625 0.0625 0
0.4375 0.0625 0
0.4375 0 0
0.46875 0 0
0.4375 0.03125 0
0.46875 0.03125 0
0.46875 0 0
0.5 0 0
0.46875 0.03125 0
0.5 0.03125 0
0.4375 0.03125 0
0.46875 0.03125 0
0.4375 0.0625 0
0.46875 0.0625 0
0.46875 0.03125 0
0.5 0.03125 0
0.46875 0.0625 0
0.5 0.0625 0
0.375 0.0625 0
0.40625 0.0625 0
0.375 0.09375 0
0.40625 0.09375 0
0.40625 0.0625 0
0.4375 0.0625 0
0.40625 0.09375 0
0.4375 0.09375 0
0.375 0.09375 0
0.40625 0.09375 0
0.375 0.125 0
0.40625 0.125 0
0.40625 0.09375 0
0.4375 0.09375 0
0.40625 0.125 0
0.4375 0.125 0
0.4375 0.0625 0
0.46875 0.0625 0
0.4375 0.09375 0
0.46875 0.09375 0
0.46875 0.0625 0
0.5 0.0625 0
0.46875 0.09375 0
0.5 0.09375 0
0.4375 0.09375 0
0.46875 0.09375 0
0.4375 0.125 0
0.46875 0.125 0
0.46875 0.09375 0
0.5 0.09375 0
0.46875 0.125 0
0.5 0.125 0
0.25 0.125 0
0.28125 0.125 0
0.25 0.15625 0
0.28125 0.15625 0
0.28125 0.125 0
0.3125 0.125 0
0.28125 0.15625 0
0.3125 0.15625 0
0.25 0.15625 0
0.28125 0.15625 0
0.25 0.1875 0
0.28125 0.1875 0
0.28125 0.15625 0
0.3125 0.15625 0
0.28125 0.1875 0
0.3125 0.1875 0
0.3125 0.125 0
0.34375 0.125 0
0.3125 0.15625 0
0.34375 0.15625 0
0.34375 0.125 0
0.375 0.125 0
0.34375 0.15625 0
0.375 0.15625 0
0.3125 0.15625 0
0.34375 0.15625 0
0.3125 0.1875 0
0.34375 0.1875 0
0.34375 0.15625 0
0.375 0.15625 0
0.34375 0.1875 0
0.375 0.1875 0
0.25 0.1875 0
0.28125 0.1875 0
0.25 0.21875 0
0.28125 0.21875 0
0.28125 0.1875 0
0.3125 0.1875 0
0.28125 0.21875 0
0.3125 0.21875 0
0.25 0.21875 0
0.28125 0.21875 0
0.25 0.25 0
0.28125 0.25 0
0.28125 0.21875 0
0.3125 0.21875 0
0.28125 0.25 0
0.3125 0.25 0
0.3125 0.1875 0
0.34375 0.1875 0
0.3125 0.21875 0
0.34375 0.21875 0
0.34375 0.1875 0
0.375 0.1875 0
0.34375 0.21875 0
0.375 0.21875 0
0.3125 0.21875 0
0.34375 0.21875 0
0.3125 0.25 0
0.34375 0.25 0
0.34375 0.21875 0
0.375 0.21875 0
0.34375 0.25 0
0.375 0.25 0
0.375 0.125 0
0.40625 0.125 0
0.375 0.15625 0
0.40625 0.15625 0
0.40625 0.125 0
0.4375 0.125 0
0.40625 0.15625 0
0.4375 0.15625 0
0.375 0.15625 0
0.40625 0.15625 0
0.375 0.1875 0
0.40625 0.1875 0
0.40625 0.15625 0
0.4375 0.15625 0
0.40625 0.1875 0
0.4375 0.1875 0
0.4375 0.125 0
0.46875 0.125 0
0.4375 0.15625 0
0.46875 0.15625 0
0.46875 0.125 0
0.5 0.125 0
0.46875 0.15625 0
0.5 0.15625 0
0.4375 0.15625 0
0.46875 0.15625 0
0.4375 0.1875 0
0.46875 0.1875 0
0.46875 0.15625 0
0.5 0.15625 0
0.46875 0.1875 0
0.5 0.1875 0
0.375 0.1875 0
0.40625 0.1875 0
0.375 0.21875 0
0.40625 0.21875 0
0.40625 0.1875 0
0.4375 0.1875 0
0.40625 0.21875 0
0.4375 0.21875 0
0.375 0.21875 0
0.40625 0.21875 0
0.375 0.25 0
0.40625 0.25 0
0.40625 0.21875 0
0.4375 0.21875 0
0.40625 0.25 0
0.4375 0.25 0
0.4375 0.1875 0
0.46875 0.1875 0
0.4375 0.21875 0
0.46875 0.21875 0
0.46875 0.1875 0
0.5 0.1875 0
0.46875 0.21875 0
0.5 0.21875 0
0.4375 0.21875 0
0.46875 0.21875 0
0.4375 0.25 0
0.46875 0.25 0
0.46875 0.21875 0
0.5 0.21875 0
0.46875 0.25 0
0.5 0.25 0
0 0.25 0
0.03125 0.25 0
0 0.28125 0
0.03125 0.28125 0
0.03125 0.25 0
0.0625 0.25 0
0.03125 0.28125 0
0.0625 0.28125 0
0 0.28125 0
0.03125 0.28125 0
0 0.3125 0
0.03125 0.3125 0
0.03125 0.28125 0
0.0625 0.28125 0
0.03125 0.3125 0
0.0625 0.3125 0
0.0625 0.25 0
0.09375 0.25 0
0.0625 0.28125 0
0.09375 0.28125 0
0.09375 0.25 0
0.125 0.25 0
0.09375 0.28125 0
0.125 0.28125 0
0.0625 0.28125 0
0.09375 0.28125 0
0.0625 0.3125 0
0.09375 0.3125 0
0.09375 0.28125 0
0.125 0.28125 0
0.09375 0.3125 0
0.125 0.3125 0
0 0.3125 0
0.03125 0.3125 0
0 0.34375 0
0.03125 0.34375 0
0.03125 0.3125 0
0.0625 0.3125 0
0.03125 0.34375 0
0.0625 0.34375 0
0 0.34375 0
0.03125 0.34375 0
0 0.375 0
0.03125 0.375 0
0.03125 0.34375 0
0.0625 0.34375 0
0.03125 0.375 0
0.0625 0.375 0
0.0625 0.3125 0
0.09375 0.3125 0
0.0625 0.34375 0
0.09375 0.34375 0
0.09375 0.3125 0
0.125 0.3125 0
0.09375 0.34375 0
0.125 0.34375 0
0.0625 0.34375 0
0.09375 0.34375 0
0.0625 0.375 0
0.09375 0.375 0
0.09375 0.34375 0
0.125 0.34375 0
0.09375 0.375 0
0.125 0.375 0
0.125 0.25 0
0.15625 0.25 0
0.125 0.28125 0
0.15625 0.28125 0
0.15625 0.25 0
0.1875 0.25 0
0.15625 0.28125 0
0.1875 0.28125 0
0.125 0.28125 0
0.15625 0.28125 0
0.125 0.3125 0
0.15625 0.3125 0
0.15625 0.28125 0
0.1875 0.28125 0
0.15625 0.3125 0
0.1875 0.3125 0
0.1875 0.25 0
0.21875 0.25 0
0.1875 0.28125 0
0.21875 0.28125 0
0.21875 0.25 0
0.25 0.25 0
0.21875 0.28125 0
0.25 0.28125 0
0.1875 0.28125 0
0.21875 0.28125 0
0.1875 0.3125 0
0.21875 0.3125 0
0.21875 0.28125 0
0.25 0.28125 0
0.21875 0.3125 0
0.25 0.3125 0
0.125 0.3125 0
0.15625 0.3125 0
0.125 0.34375 0
0.15625 0.34375 0
0.15625 0.3125 0
0.1875 0.3125 0
0.15625 0.34375 0
0.1875 0.34375 0
0.125 0.34375 0
[...]
POINT_DATA 4096
VECTORS velocity double
0 0 0
0.00366621 0 0
0 -0.00366621 0
0.00366621 -0.00366621 0
0.00366621 0 0
0.0111511 0 0
0.00366621 -0.00748488 0
0.0111511 -0.00748488 0
0 -0.00366621 0
0.00748488 -0.00366621 0
0 -0.0111511 0
0.00748488 -0.0111511 0
0.00748488 -0.00748488 0
0.0260078 -0.00748488 0
0.00748488 -0.0260078 0
0.0260078 -0.0260078 0
0.0111511 0 0
0.0210005 0 0
0.0111511 -0.00984944 0
0.0210005 -0.00984944 0
0.0210005 0 0
0.0325879 0 0
0.0210005 -0.0115873 0
0.0325879 -0.0115873 0
0.0260078 -0.00984944 0
0.0529957 -0.00984944 0
0.0260078 -0.0368373 0
0.0529957 -0.0368373 0
0.0529957 -0.0115873 0
0.086701 -0.0115873 0
0.0529957 -0.0452927 0
0.086701 -0.0452927 0
0 -0.0111511 0
0.00984944 -0.0111511 0
0 -0.0210005 0
0.00984944 -0.0210005 0
0.00984944 -0.0260078 0
0.0368373 -0.0260078 0
0.00984944 -0.0529957 0
0.0368373 -0.0529957 0
0 -0.0210005 0
0.0115873 -0.0210005 0
0 -0.0325879 0
0.0115873 -0.0325879 0
0.0115873 -0.0529957 0
0.0452927 -0.0529957 0
0.0115873 -0.086701 0
0.0452927 -0.086701 0
0.0368373 -0.0368373 0
0.0784267 -0.0368373 0
0.0368373 -0.0784267 0
0.0784267 -0.0784267 0
0.0784267 -0.0452927 0
0.132234 -0.0452927 0
0.0784267 -0.0991004 0
0.132234 -0.0991004 0
0.0452927 -0.0784267 0
0.0991004 -0.0784267 0
0.0452927 -0.132234 0
0.0991004 -0.132234 0
0.0991004 -0.0991004 0
0.170406 -0.0991004 0
0.0991004 -0.170406 0
0.170406 -0.170406 0
0.0325879 0 0
0.0455408 0 0
0.0325879 -0.0129529 0
0.0455408 -0.0129529 0
0.0455408 0 0
0.0595238 0 0
0.0455408 -0.0139831 0
0.0595238 -0.0139831 0
0.086701 -0.0129529 0
0.125736 -0.0129529 0
0.086701 -0.0519877 0
0.125736 -0.0519877 0
0.125736 -0.0139831 0
0.168778 -0.0139831 0
0.125736 -0.0570249 0
0.168778 -0.0570249 0
0.0595238 0 0
0.0741673 0 0
0.0595238 -0.0146435 0
0.0741673 -0.0146435 0
0.0741673 0 0
0.0890526 0 0
0.0741673 -0.0148853 0
0.0890526 -0.0148853 0
0.168778 -0.0146435 0
0.214434 -0.0146435 0
0.168778 -0.0603004 0
0.214434 -0.0603004 0
0.214434 -0.0148853 0
0.261211 -0.0148853 0
0.214434 -0.0616622 0
0.261211 -0.0616622 0
0.132234 -0.0519877 0
0.195943 -0.0519877 0
0.132234 -0.115696 0
0.195943 -0.115696 0
0.195943 -0.0570249 0
0.267166 -0.0570249 0
0.195943 -0.128248 0
0.267166 -0.128248 0
0.170406 -0.115696 0
0.256199 -0.115696 0
0.170406 -0.201489 0
0.256199 -0.201489 0
0.256199 -0.128248 0
0.353136 -0.128248 0
0.256199 -0.225184 0
0.353136 -0.225184 0
0.267166 -0.0603004 0
0.343371 -0.0603004 0
0.267166 -0.136506 0
0.343371 -0.136506 0
0.343371 -0.0616622 0
0.421873 -0.0616622 0
0.343371 -0.140164 0
0.421873 -0.140164 0
0.353136 -0.136506 0
0.457577 -0.136506 0
0.353136 -0.240947 0
0.457577 -0.240947 0
0.457577 -0.140164 0
0.565655 -0.140164 0
0.457577 -0.248242 0
0.565655 -0.248242 0
0 -0.0325879 0
0.0129529 -0.0325879 0
0 -0.0455408 0
0.0129529 -0.0455408 0
0.0129529 -0.086701 0
0.0519877 -0.086701 0
0.0129529 -0.125736 0
0.0519877 -0.125736 0
0 -0.0455408 0
0.0139831 -0.0455408 0
0 -0.0595238 0
0.0139831 -0.0595238 0
0.0139831 -0.125736 0
0.0570249 -0.125736 0
0.0139831 -0.168778 0
0.0570249 -0.168778 0
0.0519877 -0.132234 0
0.115696 -0.132234 0
0.0519877 -0.195943 0
0.115696 -0.195943 0
0.115696 -0.170406 0
0.201489 -0.170406 0
0.115696 -0.256199 0
0.201489 -0.256199 0
0.0570249 -0.195943 0
0.128248 -0.195943 0
0.0570249 -0.267166 0
0.128248 -0.267166 0
0.128248 -0.256199 0
0.225184 -0.256199 0
0.128248 -0.353136 0
0.225184 -0.353136 0
0 -0.0595238 0
0.0146435 -0.0595238 0
0 -0.0741673 0
0.0146435 -0.0741673 0
0.0146435 -0.168778 0
0.0603004 -0.168778 0
0.0146435 -0.214434 0
0.0603004 -0.214434 0
0 -0.0741673 0
0.0148853 -0.0741673 0
0 -0.0890526 0
0.0148853 -0.0890526 0
0.0148853 -0.214434 0
0.0616622 -0.214434 0
0.0148853 -0.261211 0
0.0616622 -0.261211 0
0.0603004 -0.267166 0
0.136506 -0.267166 0
0.0603004 -0.343371 0
0.136506 -0.343371 0
0.136506 -0.353136 0
0.240947 -0.353136 0
0.136506 -0.457577 0
0.240947 -0.457577 0
0.0616622 -0.343371 0
0.140164 -0.343371 0
0.0616622 -0.421873 0
0.140164 -0.421873 0
0.140164 -0.457577 0
0.248242 -0.457577 0
0.140164 -0.565655 0
0.248242 -0.565655 0
0.201489 -0.201489 0
0.30591 -0.201489 0
0.201489 -0.30591 0
0.30591 -0.30591 0
0.30591 -0.225184 0
0.42485 -0.225184 0
0.30591 -0.344124 0
0.42485 -0.344124 0
0.225184 -0.30591 0
0.344124 -0.30591 0
0.225184 -0.42485 0
0.344124 -0.42485 0
0.344124 -0.344124 0
0.480415 -0.344124 0
0.344124 -0.480415 0
0.480415 -0.480415 0
0.42485 -0.240947 0
0.553713 -0.240947 0
0.42485 -0.369811 0
0.553713 -0.369811 0
0.553713 -0.248242 0
0.687574 -0.248242 0
0.553713 -0.382102 0
0.687574 -0.382102 0
0.480415 -0.369811 0
0.628724 -0.369811 0
0.480415 -0.518119 0
0.628724 -0.518119 0
0.628724 -0.382102 0
0.783264 -0.382102 0
0.628724 -0.536642 0
0.783264 -0.536642 0
0.240947 -0.42485 0
0.369811 -0.42485 0
0.240947 -0.553713 0
0.369811 -0.553713 0
0.369811 -0.480415 0
0.518119 -0.480415 0
0.369811 -0.628724 0
0.518119 -0.628724 0
0.248242 -0.553713 0
0.382102 -0.553713 0
0.248242 -0.687574 0
0.382102 -0.687574 0
0.382102 -0.628724 0
0.536642 -0.628724 0
0.382102 -0.783264 0
0.536642 -0.783264 0
0.518119 -0.518119 0
0.680042 -0.518119 0
0.518119 -0.680042 0
0.680042 -0.680042 0
0.680042 -0.536642 0
0.849191 -0.536642 0
0.680042 -0.705791 0
0.849191 -0.705791 0
0.536642 -0.680042 0
0.705791 -0.680042 0
0.536642 -0.849191 0
0.705791 -0.849191 0
0.705791 -0.705791 0
0.882833 -0.705791 0
0.705791 -0.882833 0
0.882833 -0.882833 0
0.0890526 0 0
0.103721 0 0
0.0890526 -0.0146688 0
0.103721 -0.0146688 0
0.103721 0 0
0.117695 0 0
0.103721 -0.0139735 0
0.117695 -0.0139735 0
0.261211 -0.0146688 0
0.307532 -0.0146688 0
0.261211 -0.0609894 0
0.307532 -0.0609894 0
0.307532 -0.0139735 0
0.35179 -0.0139735 0
0.307532 -0.058231 0
0.35179 -0.058231 0
0.117695 0 0
0.130496 0 0
0.117695 -0.0128016 0
0.130496 -0.0128016 0
0.130496 0 0
0.141675 0 0
0.130496 -0.0111788 0
0.141675 -0.0111788 0
0.35179 -0.0128016 0
0.392411 -0.0128016 0
0.35179 -0.0534226 0
0.392411 -0.0534226 0
0.392411 -0.0111788 0
0.427923 -0.0111788 0
0.392411 -0.046691 0
0.427923 -0.046691 0
0.421873 -0.0609894 0
0.499877 -0.0609894 0
0.421873 -0.138994 0
0.499877 -0.138994 0
0.499877 -0.058231 0
0.574573 -0.058231 0
0.499877 -0.132926 0
0.574573 -0.132926 0
0.565655 -0.138994 0
0.673371 -0.138994 0
0.565655 -0.24671 0
0.673371 -0.24671 0
0.673371 -0.132926 0
0.77672 -0.132926 0
0.673371 -0.236275 0
0.77672 -0.236275 0
0.574573 -0.0534226 0
0.643227 -0.0534226 0
0.574573 -0.122077 0
0.643227 -0.122077 0
0.643227 -0.046691 0
0.703301 -0.046691 0
0.643227 -0.106765 0
0.703301 -0.106765 0
0.77672 -0.122077 0
0.871834 -0.122077 0
0.77672 -0.217191 0
0.871834 -0.217191 0
0.871834 -0.106765 0
0.955131 -0.106765 0
0.871834 -0.190063 0
0.955131 -0.190063 0
0.141675 0 0
0.150828 0 0
0.141675 -0.00915313 0
0.150828 -0.00915313 0
0.150828 0 0
0.15762 0 0
0.150828 -0.00679207 0
0.15762 -0.00679207 0
0.427923 -0.00915313 0
0.45702 -0.00915313 0
0.427923 -0.0382503 0
0.45702 -0.0382503 0
0.45702 -0.00679207 0
0.47862 -0.00679207 0
0.45702 -0.0283923 0
0.47862 -0.0283923 0
0.15762 0 0
0.1618 0 0
0.15762 -0.00417935 0
0.1618 -0.00417935 0
0.1618 0 0
0.16321 0 0
0.1618 -0.00141072 0
0.16321 -0.00141072 0
0.47862 -0.00417935 0
0.491915 -0.00417935 0
0.47862 -0.0174736 0
0.491915 -0.0174736 0
0.491915 -0.00141072 0
0.496402 -0.00141072 0
0.491915 -0.00589856 0
0.496402 -0.00589856 0
0.703301 -0.0382503 0
0.752551 -0.0382503 0
0.703301 -0.0875004 0
0.752551 -0.0875004 0
0.752551 -0.0283923 0
0.789125 -0.0283923 0
0.752551 -0.064966 0
0.789125 -0.064966 0
0.955131 -0.0875004 0
1.02346 -0.0875004 0
0.955131 -0.155828 0
1.02346 -0.155828 0
1.02346 -0.064966 0
1.07422 -0.064966 0
1.02346 -0.115724 0
1.07422 -0.115724 0
0.789125 -0.0174736 0
0.811639 -0.0174736 0
0.789125 -0.0399879 0
0.811639 -0.0399879 0
0.811639 -0.00589856 0
0.819241 -0.00589856 0
0.811639 -0.0134996 0
0.819241 -0.0134996 0
1.07422 -0.0399879 0
1.10547 -0.0399879 0
1.07422 -0.0712406 0
1.10547 -0.0712406 0
1.10547 -0.0134996 0
1.11602 -0.0134996 0
1.10547 -0.0240518 0
1.11602 -0.0240518 0
0.687574 -0.24671 0
0.821332 -0.24671 0
0.687574 -0.380468 0
0.821332 -0.380468 0
0.821332 -0.236275 0
0.949893 -0.236275 0
0.821332 -0.364836 0
0.949893 -0.364836 0
0.783264 -0.380468 0
0.938029 -0.380468 0
0.783264 -0.535233 0
0.938029 -0.535233 0
0.938029 -0.364836 0
1.08701 -0.364836 0
0.938029 -0.51382 0
1.08701 -0.51382 0
0.949893 -0.217191 0
1.06835 -0.217191 0
0.949893 -0.335651 0
1.06835 -0.335651 0
1.06835 -0.190063 0
1.17218 -0.190063 0
1.06835 -0.29389 0
1.17218 -0.29389 0
1.08701 -0.335651 0
1.22444 -0.335651 0
1.08701 -0.473077 0
1.22444 -0.473077 0
1.22444 -0.29389 0
1.34498 -0.29389 0
1.22444 -0.414431 0
1.34498 -0.414431 0
0.849191 -0.535233 0
1.0189 -0.535233 0
0.849191 -0.704939 0
1.0189 -0.704939 0
1.0189 -0.51382 0
1.18248 -0.51382 0
1.0189 -0.677406 0
1.18248 -0.677406 0
0.882833 -0.704939 0
1.06072 -0.704939 0
0.882833 -0.88283 0
1.06072 -0.88283 0
1.06072 -0.677406 0
1.23239 -0.677406 0
1.06072 -0.849076 0
1.23239 -0.849076 0
1.18248 -0.473077 0
1.33353 -0.473077 0
1.18248 -0.62412 0
1.33353 -0.62412 0
1.33353 -0.414431 0
1.4661 -0.414431 0
1.33353 -0.547007 0
1.4661 -0.547007 0
1.23239 -0.62412 0
1.39103 -0.62412 0
1.23239 -0.782758 0
1.39103 -0.782758 0
1.39103 -0.547007 0
1.53036 -0.547007 0
1.39103 -0.686335 0
1.53036 -0.686335 0
1.17218 -0.155828 0
1.25739 -0.155828 0
1.17218 -0.241041 0
1.25739 -0.241041 0
1.25739 -0.115724 0
1.32072 -0.115724 0
1.25739 -0.179048 0
1.32072 -0.179048 0
1.34498 -0.241041 0
1.44396 -0.241041 0
1.34498 -0.340022 0
1.44396 -0.340022 0
1.44396 -0.179048 0
1.51754 -0.179048 0
1.44396 -0.252629 0
1.51754 -0.252629 0
1.32072 -0.0712406 0
1.35971 -0.0712406 0
1.32072 -0.110238 0
1.35971 -0.110238 0
1.35971 -0.0240518 0
1.37288 -0.0240518 0
1.35971 -0.0372203 0
1.37288 -0.0372203 0
1.51754 -0.110238 0
1.56287 -0.110238 0
1.51754 -0.155562 0
1.56287 -0.155562 0
1.56287 -0.0372203 0
1.57817 -0.0372203 0
1.56287 -0.0525263 0
1.57817 -0.0525263 0
1.4661 -0.340022 0
1.57502 -0.340022 0
1.4661 -0.448937 0
1.57502 -0.448937 0
1.57502 -0.252629 0
1.65601 -0.252629 0
1.57502 -0.33362 0
1.65601 -0.33362 0
1.53036 -0.448937 0
1.64487 -0.448937 0
1.53036 -0.56345 0
1.64487 -0.56345 0
1.64487 -0.33362 0
1.73005 -0.33362 0
1.64487 -0.418799 0
1.73005 -0.418799 0
1.65601 -0.155562 0
1.70591 -0.155562 0
1.65601 -0.20546 0
1.70591 -0.20546 0
1.70591 -0.0525263 0
1.72276 -0.0525263 0
1.70591 -0.0693786 0
1.72276 -0.0693786 0
1.73005 -0.20546 0
1.78254 -0.20546 0
1.73005 -0.257947 0
1.78254 -0.257947 0
1.78254 -0.0693786 0
1.80027 -0.0693786 0
1.78254 -0.0871071 0
1.80027 -0.0871071 0
0 -0.0890526 0
0.0146688 -0.0890526 0
0 -0.103721 0
0.0146688 -0.103721 0
0.0146688 -0.261211 0
0.0609894 -0.261211 0
0.0146688 -0.307532 0
0.0609894 -0.307532 0
0 -0.103721 0
0.0139735 -0.103721 0
0 -0.117695 0
0.0139735 -0.117695 0
0.0139735 -0.307532 0
0.058231 -0.307532 0
0.0139735 -0.35179 0
0.058231 -0.35179 0
0.0609894 -0.421873 0
0.138994 -0.421873 0
0.0609894 -0.499877 0
0.138994 -0.499877 0
0.138994 -0.565655 0
0.24671 -0.565655 0
0.138994 -0.673371 0
0.24671 -0.673371 0
0.058231 -0.499877 0
0.132926 -0.499877 0
0.058231 -0.574573 0
0.132926 -0.574573 0
0.132926 -0.673371 0
0.236275 -0.673371 0
0.132926 -0.77672 0
0.236275 -0.77672 0
0 -0.117695 0
0.0128016 -0.117695 0
0 -0.130496 0
0.0128016 -0.130496 0
0.0128016 -0.35179 0
0.0534226 -0.35179 0
0.0128016 -0.392411 0
0.0534226 -0.392411 0
0 -0.130496 0
0.0111788 -0.130496 0
0 -0.141675 0
0.0111788 -0.141675 0
0.0111788 -0.392411 0
0.046691 -0.392411 0
0.0111788 -0.427923 0
0.046691 -0.427923 0
0.0534226 -0.574573 0
0.122077 -0.574573 0
0.0534226 -0.643227 0
0.122077 -0.643227 0
0.122077 -0.77672 0
0.217191 -0.77672 0
0.122077 -0.871834 0
0.217191 -0.871834 0
0.046691 -0.643227 0
0.106765 -0.643227 0
0.046691 -0.703301 0
0.106765 -0.703301 0
0.106765 -0.871834 0
0.190063 -0.871834 0
0.106765 -0.955131 0
0.190063 -0.955131 0
0.24671 -0.687574 0
0.380468 -0.687574 0
0.24671 -0.821332 0
0.380468 -0.821332 0
0.380468 -0.783264 0
0.535233 -0.783264 0
0.380468 -0.938029 0
0.535233 -0.938029 0
0.236275 -0.821332 0
0.364836 -0.821332 0
0.236275 -0.949893 0
0.364836 -0.949893 0
0.364836 -0.938029 0
0.51382 -0.938029 0
0.364836 -1.08701 0
0.51382 -1.08701 0
0.535233 -0.849191 0
0.704939 -0.849191 0
0.535233 -1.0189 0
0.704939 -1.0189 0
0.704939 -0.882833 0
0.88283 -0.882833 0
0.704939 -1.06072 0
0.88283 -1.06072 0
0.51382 -1.0189 0
0.677406 -1.0189 0
0.51382 -1.18248 0
0.677406 -1.18248 0
0.677406 -1.06072 0
0.849076 -1.06072 0
0.677406 -1.23239 0
0.849076 -1.23239 0
0.217191 -0.949893 0
0.335651 -0.949893 0
0.217191 -1.06835 0
0.335651 -1.06835 0
0.335651 -1.08701 0
0.473077 -1.08701 0
0.335651 -1.22444 0
0.473077 -1.22444 0
0.190063 -1.06835 0
0.29389 -1.06835 0
0.190063 -1.17218 0
0.29389 -1.17218 0
0.29389 -1.22444 0
0.414431 -1.22444 0
0.29389 -1.34498 0
0.414431 -1.34498 0
0.473077 -1.18248 0
0.62412 -1.18248 0
0.473077 -1.33353 0
0.62412 -1.33353 0
0.62412 -1.23239 0
0.782758 -1.23239 0
0.62412 -1.39103 0
0.782758 -1.39103 0
0.414431 -1.33353 0
0.547007 -1.33353 0
0.414431 -1.4661 0
0.547007 -1.4661 0
0.547007 -1.39103 0
0.686335 -1.39103 0
0.547007 -1.53036 0
0.686335 -1.53036 0
0 -0.141675 0
0.00915313 -0.141675 0
0 -0.150828 0
0.00915313 -0.150828 0
0.00915313 -0.427923 0
0.0382503 -0.427923 0
0.00915313 -0.45702 0
0.0382503 -0.45702 0
0 -0.150828 0
0.00679207 -0.150828 0
0 -0.15762 0
0.00679207 -0.15762 0
0.00679207 -0.45702 0
0.0283923 -0.45702 0
0.00679207 -0.47862 0
0.0283923 -0.47862 0
0.0382503 -0.703301 0
0.0875004 -0.703301 0
0.0382503 -0.752551 0
0.0875004 -0.752551 0
0.0875004 -0.955131 0
0.155828 -0.955131 0
0.0875004 -1.02346 0
0.155828 -1.02346 0
0.0283923 -0.752551 0
0.064966 -0.752551 0
0.0283923 -0.789125 0
0.064966 -0.789125 0
0.064966 -1.02346 0
0.115724 -1.02346 0
0.064966 -1.07422 0
0.115724 -1.07422 0
0 -0.15762 0
0.00417935 -0.15762 0
0 -0.1618 0
0.00417935 -0.1618 0
0.00417935 -0.47862 0
0.0174736 -0.47862 0
0.00417935 -0.491915 0
0.0174736 -0.491915 0
0 -0.1618 0
0.00141072 -0.1618 0
0 -0.16321 0
0.00141072 -0.16321 0
0.00141072 -0.491915 0
0.00589856 -0.491915 0
0.00141072 -0.496402 0
0.00589856 -0.496402 0
0.0174736 -0.789125 0
0.0399879 -0.789125 0
0.0174736 -0.811639 0
0.0399879 -0.811639 0
0.0399879 -1.07422 0
0.0712406 -1.07422 0
0.0399879 -1.10547 0
0.0712406 -1.10547 0
0.00589856 -0.811639 0
0.0134996 -0.811639 0
0.00589856 -0.819241 0
0.0134996 -0.819241 0
0.0134996 -1.10547 0
0.0240518 -1.10547 0
0.0134996 -1.11602 0
0.0240518 -1.11602 0
0.155828 -1.17218 0
0.241041 -1.17218 0
0.155828 -1.25739 0
0.241041 -1.25739 0
0.241041 -1.34498 0
0.340022 -1.34498 0
0.241041 -1.44396 0
0.340022 -1.44396 0
0.115724 -1.25739 0
0.179048 -1.25739 0
0.115724 -1.32072 0
0.179048 -1.32072 0
0.179048 -1.44396 0
0.252629 -1.44396 0
0.179048 -1.51754 0
0.252629 -1.51754 0
0.340022 -1.4661 0
0.448937 -1.4661 0
0.340022 -1.57502 0
0.448937 -1.57502 0
0.448937 -1.53036 0
0.56345 -1.53036 0
0.448937 -1.64487 0
0.56345 -1.64487 0
0.252629 -1.57502 0
0.33362 -1.57502 0
0.252629 -1.65601 0
0.33362 -1.65601 0
0.33362 -1.64487 0
0.418799 -1.64487 0
0.33362 -1.73005 0
0.418799 -1.73005 0
0.0712406 -1.32072 0
0.110238 -1.32072 0
0.0712406 -1.35971 0
0.110238 -1.35971 0
0.110238 -1.51754 0
0.155562 -1.51754 0
0.110238 -1.56287 0
0.155562 -1.56287 0
0.0240518 -1.35971 0
0.0372203 -1.35971 0
0.0240518 -1.37288 0
0.0372203 -1.37288 0
0.0372203 -1.56287 0
0.0525263 -1.56287 0
0.0372203 -1.57817 0
0.0525263 -1.57817 0
0.155562 -1.65601 0
0.20546 -1.65601 0
0.155562 -1.70591 0
0.20546 -1.70591 0
0.20546 -1.73005 0
0.257947 -1.73005 0
0.20546 -1.78254 0
0.257947 -1.78254 0
0.0525263 -1.70591 0
0.0693786 -1.70591 0
0.0525263 -1.72276 0
0.0693786 -1.72276 0
0.0693786 -1.78254 0
0.0871071 -1.78254 0
0.0693786 -1.80027 0
0.0871071 -1.80027 0
0.88283 -0.88283 0
1.06179 -0.88283 0
0.88283 -1.06179 0
1.06179 -1.06179 0
1.06179 -0.849076 0
1.23465 -0.849076 0
1.06179 -1.02193 0
1.23465 -1.02193 0
0.849076 -1.06179 0
1.02193 -1.06179 0
0.849076 -1.23465 0
1.02193 -1.23465 0
1.02193 -1.02193 0
1.18903 -1.02193 0
1.02193 -1.18903 0
1.18903 -1.18903 0
1.23465 -0.782758 0
1.3945 -0.782758 0
1.23465 -0.942608 0
1.3945 -0.942608 0
1.3945 -0.686335 0
1.53496 -0.686335 0
1.3945 -0.826801 0
1.53496 -0.826801 0
1.18903 -0.942608 0
1.34363 -0.942608 0
1.18903 -1.09722 0
1.34363 -1.09722 0
1.34363 -0.826801 0
1.47955 -0.826801 0
1.34363 -0.962722 0
1.47955 -0.962722 0
0.782758 -1.23465 0
0.942608 -1.23465 0
0.782758 -1.3945 0
0.942608 -1.3945 0
0.942608 -1.18903 0
1.09722 -1.18903 0
0.942608 -1.34363 0
1.09722 -1.34363 0
0.686335 -1.3945 0
0.826801 -1.3945 0
0.686335 -1.53496 0
0.826801 -1.53496 0
0.826801 -1.34363 0
0.962722 -1.34363 0
0.826801 -1.47955 0
0.962722 -1.47955 0
1.09722 -1.09722 0
1.24034 -1.09722 0
1.09722 -1.24034 0
1.24034 -1.24034 0
1.24034 -0.962722 0
1.36621 -0.962722 0
1.24034 -1.08859 0
1.36621 -1.08859 0
0.962722 -1.24034 0
1.08859 -1.24034 0
0.962722 -1.36621 0
1.08859 -1.36621 0
1.08859 -1.08859 0
1.19932 -1.08859 0
1.08859 -1.19932 0
1.19932 -1.19932 0
1.53496 -0.56345 0
1.65045 -0.56345 0
1.53496 -0.678942 0
1.65045 -0.678942 0
1.65045 -0.418799 0
1.73638 -0.418799 0
1.65045 -0.504729 0
1.73638 -0.504729 0
1.47955 -0.678942 0
1.59135 -0.678942 0
1.47955 -0.790734 0
1.59135 -0.790734 0
1.59135 -0.504729 0
1.67454 -0.504729 0
1.59135 -0.587925 0
1.67454 -0.587925 0
1.73638 -0.257947 0
1.78934 -0.257947 0
1.73638 -0.310906 0
1.78934 -0.310906 0
1.78934 -0.0871071 0
1.80723 -0.0871071 0
1.78934 -0.104996 0
1.80723 -0.104996 0
1.67454 -0.310906 0
1.72582 -0.310906 0
1.67454 -0.362188 0
1.72582 -0.362188 0
1.72582 -0.104996 0
1.74315 -0.104996 0
1.72582 -0.12232 0
1.74315 -0.12232 0
1.36621 -0.790734 0
1.46976 -0.790734 0
1.36621 -0.894288 0
1.46976 -0.894288 0
1.46976 -0.587925 0
1.54685 -0.587925 0
1.46976 -0.665006 0
1.54685 -0.665006 0
1.19932 -0.894288 0
1.29044 -0.894288 0
1.19932 -0.985405 0
1.29044 -0.985405 0
1.29044 -0.665006 0
1.35827 -0.665006 0
1.29044 -0.73284 0
1.35827 -0.73284 0
1.54685 -0.362188 0
1.59436 -0.362188 0
1.54685 -0.409706 0
1.59436 -0.409706 0
1.59436 -0.12232 0
1.61042 -0.12232 0
1.59436 -0.138374 0
1.61042 -0.138374 0
1.35827 -0.409706 0
1.4001 -0.409706 0
1.35827 -0.451529 0
1.4001 -0.451529 0
1.4001 -0.138374 0
1.41423 -0.138374 0
1.4001 -0.152504 0
1.41423 -0.152504 0
0.56345 -1.53496 0
0.678942 -1.53496 0
0.56345 -1.65045 0
0.678942 -1.65045 0
0.678942 -1.47955 0
0.790734 -1.47955 0
0.678942 -1.59135 0
0.790734 -1.59135 0
0.418799 -1.65045 0
0.504729 -1.65045 0
0.418799 -1.73638 0
0.504729 -1.73638 0
0.504729 -1.59135 0
0.587925 -1.59135 0
0.504729 -1.67454 0
0.587925 -1.67454 0
0.790734 -1.36621 0
0.894288 -1.36621 0
0.790734 -1.46976 0
0.894288 -1.46976 0
0.894288 -1.19932 0
0.985405 -1.19932 0
0.894288 -1.29044 0
0.985405 -1.29044 0
0.587925 -1.46976 0
0.665006 -1.46976 0
0.587925 -1.54685 0
0.665006 -1.54685 0
0.665006 -1.29044 0
0.73284 -1.29044 0
0.665006 -1.35827 0
0.73284 -1.35827 0
0.257947 -1.73638 0
0.310906 -1.73638 0
0.257947 -1.78934 0
0.310906 -1.78934 0
0.310906 -1.67454 0
0.362188 -1.67454 0
0.310906 -1.72582 0
0.362188 -1.72582 0
0.0871071 -1.78934 0
0.104996 -1.78934 0
0.0871071 -1.80723 0
0.104996 -1.80723 0
0.104996 -1.72582 0
0.12232 -1.72582 0
0.104996 -1.74315 0
0.12232 -1.74315 0
0.362188 -1.54685 0
0.409706 -1.54685 0
0.362188 -1.59436 0
0.409706 -1.59436 0
0.409706 -1.35827 0
0.451529 -1.35827 0
0.409706 -1.4001 0
0.451529 -1.4001 0
0.12232 -1.59436 0
0.138374 -1.59436 0
0.12232 -1.61042 0
0.138374 -1.61042 0
0.138374 -1.4001 0
0.152504 -1.4001 0
0.138374 -1.41423 0
0.152504 -1.41423 0
0.985405 -0.985405 0
1.0604 -0.985405 0
0.985405 -1.0604 0
1.0604 -1.0604 0
1.0604 -0.73284 0
1.11624 -0.73284 0
1.0604 -0.788677 0
1.11624 -0.788677 0
0.73284 -1.0604 0
0.788677 -1.0604 0
0.73284 -1.11624 0
0.788677 -1.11624 0
0.788677 -0.788677 0
0.830256 -0.788677 0
0.788677 -0.830256 0
0.830256 -0.830256 0
1.11624 -0.451529 0
1.15066 -0.451529 0
1.11624 -0.485957 0
1.15066 -0.485957 0
1.15066 -0.152504 0
1.1623 -0.152504 0
1.15066 -0.164136 0
1.1623 -0.164136 0