# vtk DataFile Version 3.0
#This file was generated by the deal.II library on 2017/9/21 at 11:18:05
ASCII
DATASET UNSTRUCTURED_GRID

POINTS 1024 double
0 0 0
0.0625 0 0
0 0.0625 0
0.0625 0.0625 0
0.0625 0 0
0.125 0 0
0.0625 0.0625 0
0.125 0.0625 0
0 0.0625 0
0.0625 0.0625 0
0 0.125 0
0.0625 0.125 0
0.0625 0.0625 0
0.125 0.0625 0
0.0625 0.125 0
0.125 0.125 0
0.125 0 0
0.1875 0 0
0.125 0.0625 0
0.1875 0.0625 0
0.1875 0 0
0.25 0 0
0.1875 0.0625 0
0.25 0.0625 0
0.125 0.0625 0
0.1875 0.0625 0
0.125 0.125 0
0.1875 0.125 0
0.1875 0.0625 0
0.25 0.0625 0
0.1875 0.125 0
0.25 0.125 0
0 0.125 0
0.0625 0.125 0
0 0.1875 0
0.0625 0.1875 0
0.0625 0.125 0
0.125 0.125 0
0.0625 0.1875 0
0.125 0.1875 0
0 0.1875 0
0.0625 0.1875 0
0 0.25 0
0.0625 0.25 0
0.0625 0.1875 0
0.125 0.1875 0
0.0625 0.25 0
0.125 0.25 0
0.125 0.125 0
0.1875 0.125 0
0.125 0.1875 0
0.1875 0.1875 0
0.1875 0.125 0
0.25 0.125 0
0.1875 0.1875 0
0.25 0.1875 0
0.125 0.1875 0
0.1875 0.1875 0
0.125 0.25 0
0.1875 0.25 0
0.1875 0.1875 0
0.25 0.1875 0
0.1875 0.25 0
0.25 0.25 0
0.25 0 0
0.3125 0 0
0.25 0.0625 0
0.3125 0.0625 0
0.3125 0 0
0.375 0 0
0.3125 0.0625 0
0.375 0.0625 0
0.25 0.0625 0
0.3125 0.0625 0
0.25 0.125 0
0.3125 0.125 0
0.3125 0.0625 0
0.375 0.0625 0
0.3125 0.125 0
0.375 0.125 0
0.375 0 0
0.4375 0 0
0.375 0.0625 0
0.4375 0.0625 0
0.4375 0 0
0.5 0 0
0.4375 0.0625 0
0.5 0.0625 0
0.375 0.0625 0
0.4375 0.0625 0
0.375 0.125 0
0.4375 0.125 0
0.4375 0.0625 0
0.5 0.0625 0
0.4375 0.125 0
0.5 0.125 0
0.25 0.125 0
0.3125 0.125 0
0.25 0.1875 0
0.3125 0.1875 0
0.3125 0.125 0
0.375 0.125 0
0.3125 0.1875 0
0.375 0.1875 0
0.25 0.1875 0
0.3125 0.1875 0
0.25 0.25 0
0.3125 0.25 0
0.3125 0.1875 0
0.375 0.1875 0
0.3125 0.25 0
0.375 0.25 0
0.375 0.125 0
0.4375 0.125 0
0.375 0.1875 0
0.4375 0.1875 0
0.4375 0.125 0
0.5 0.125 0
0.4375 0.1875 0
0.5 0.1875 0
0.375 0.1875 0
0.4375 0.1875 0
0.375 0.25 0
0.4375 0.25 0
0.4375 0.1875 0
0.5 0.1875 0
0.4375 0.25 0
0.5 0.25 0
0 0.25 0
0.0625 0.25 0
0 0.3125 0
0.0625 0.3125 0
0.0625 0.25 0
0.125 0.25 0
0.0625 0.3125 0
0.125 0.3125 0
0 0.3125 0
0.0625 0.3125 0
0 0.375 0
0.0625 0.375 0
0.0625 0.3125 0
0.125 0.3125 0
0.0625 0.375 0
0.125 0.375 0
0.125 0.25 0
0.1875 0.25 0
0.125 0.3125 0
0.1875 0.3125 0
0.1875 0.25 0
0.25 0.25 0
0.1875 0.3125 0
0.25 0.3125 0
0.125 0.3125 0
0.1875 0.3125 0
0.125 0.375 0
0.1875 0.375 0
0.1875 0.3125 0
0.25 0.3125 0
0.1875 0.375 0
0.25 0.375 0
0 0.375 0
0.0625 0.375 0
0 0.4375 0
0.0625 0.4375 0
0.0625 0.375 0
0.125 0.375 0
0.0625 0.4375 0
0.125 0.4375 0
0 0.4375 0
0.0625 0.4375 0
0 0.5 0
0.0625 0.5 0
0.0625 0.4375 0
0.125 0.4375 0
0.0625 0.5 0
0.125 0.5 0
0.125 0.375 0
0.1875 0.375 0
0.125 0.4375 0
0.1875 0.4375 0
0.1875 0.375 0
0.25 0.375 0
0.1875 0.4375 0
0.25 0.4375 0
0.125 0.4375 0
0.1875 0.4375 0
0.125 0.5 0
0.1875 0.5 0
0.1875 0.4375 0
0.25 0.4375 0
0.1875 0.5 0
0.25 0.5 0
0.25 0.25 0
0.3125 0.25 0
0.25 0.3125 0
0.3125 0.3125 0
0.3125 0.25 0
0.375 0.25 0
0.3125 0.3125 0
0.375 0.3125 0
0.25 0.3125 0
0.3125 0.3125 0
0.25 0.375 0
0.3125 0.375 0
0.3125 0.3125 0
0.375 0.3125 0
0.3125 0.375 0
0.375 0.375 0
0.375 0.25 0
0.4375 0.25 0
0.375 0.3125 0
0.4375 0.3125 0
0.4375 0.25 0
0.5 0.25 0
0.4375 0.3125 0
0.5 0.3125 0
0.375 0.3125 0
0.4375 0.3125 0
0.375 0.375 0
0.4375 0.375 0
0.4375 0.3125 0
0.5 0.3125 0
0.4375 0.375 0
0.5 0.375 0
0.25 0.375 0
0.3125 0.375 0
0.25 0.4375 0
0.3125 0.4375 0
0.3125 0.375 0
0.375 0.375 0
0.3125 0.4375 0
0.375 0.4375 0
0.25 0.4375 0
0.3125 0.4375 0
0.25 0.5 0
0.3125 0.5 0
0.3125 0.4375 0
0.375 0.4375 0
0.3125 0.5 0
0.375 0.5 0
0.375 0.375 0
0.4375 0.375 0
0.375 0.4375 0
0.4375 0.4375 0
0.4375 0.375 0
0.5 0.375 0
0.4375 0.4375 0
0.5 0.4375 0
0.375 0.4375 0
0.4375 0.4375 0
0.375 0.5 0
0.4375 0.5 0
0.4375 0.4375 0
0.5 0.4375 0
0.4375 0.5 0
0.5 0.5 0
0.5 0 0
0.5625 0 0
0.5 0.0625 0
0.5625 0.0625 0
0.5625 0 0
0.625 0 0
0.5625 0.0625 0
0.625 0.0625 0
0.5 0.0625 0
0.5625 0.0625 0
0.5 0.125 0
0.5625 0.125 0
0.5625 0.0625 0
0.625 0.0625 0
0.5625 0.125 0
0.625 0.125 0
0.625 0 0
0.6875 0 0
0.625 0.0625 0
0.6875 0.0625 0
0.6875 0 0
0.75 0 0
0.6875 0.0625 0
0.75 0.0625 0
0.625 0.0625 0
0.6875 0.0625 0
0.625 0.125 0
0.6875 0.125 0
0.6875 0.0625 0
0.75 0.0625 0
0.6875 0.125 0
0.75 0.125 0
0.5 0.125 0
0.5625 0.125 0
0.5 0.1875 0
0.5625 0.1875 0
0.5625 0.125 0
0.625 0.125 0
0.5625 0.1875 0
0.625 0.1875 0
0.5 0.1875 0
0.5625 0.1875 0
0.5 0.25 0
0.5625 0.25 0
0.5625 0.1875 0
0.625 0.1875 0
0.5625 0.25 0
0.625 0.25 0
0.625 0.125 0
0.6875 0.125 0
0.625 0.1875 0
0.6875 0.1875 0
0.6875 0.125 0
0.75 0.125 0
0.6875 0.1875 0
0.75 0.1875 0
0.625 0.1875 0
0.6875 0.1875 0
0.625 0.25 0
0.6875 0.25 0
0.6875 0.1875 0
0.75 0.1875 0
0.6875 0.25 0
0.75 0.25 0
0.75 0 0
0.8125 0 0
0.75 0.0625 0
0.8125 0.0625 0
0.8125 0 0
0.875 0 0
0.8125 0.0625 0
0.875 0.0625 0
0.75 0.0625 0
0.8125 0.0625 0
0.75 0.125 0
0.8125 0.125 0
0.8125 0.0625 0
0.875 0.0625 0
0.8125 0.125 0
0.875 0.125 0
0.875 0 0
0.9375 0 0
0.875 0.0625 0
0.9375 0.0625 0
0.9375 0 0
1 0 0
0.9375 0.0625 0
1 0.0625 0
0.875 0.0625 0
0.9375 0.0625 0
0.875 0.125 0
0.9375 0.125 0
0.9375 0.0625 0
1 0.0625 0
0.9375 0.125 0
1 0.125 0
0.75 0.125 0
0.8125 0.125 0
0.75 0.1875 0
0.8125 0.1875 0
0.8125 0.125 0
0.875 0.125 0
0.8125 0.1875 0
0.875 0.1875 0
0.75 0.1875 0
0.8125 0.1875 0
0.75 0.25 0
0.8125 0.25 0
0.8125 0.1875 0
0.875 0.1875 0
0.8125 0.25 0
0.875 0.25 0
0.875 0.125 0
0.9375 0.125 0
0.875 0.1875 0
0.9375 0.1875 0
0.9375 0.125 0
1 0.125 0
0.9375 0.1875 0
1 0.1875 0
0.875 0.1875 0
0.9375 0.1875 0
0.875 0.25 0
0.9375 0.25 0
0.9375 0.1875 0
1 0.1875 0
0.9375 0.25 0
1 0.25 0
0.5 0.25 0
0.5625 0.25 0
0.5 0.3125 0
0.5625 0.3125 0
0.5625 0.25 0
0.625 0.25 0
0.5625 0.3125 0
0.625 0.3125 0
0.5 0.3125 0
0.5625 0.3125 0
0.5 0.375 0
0.5625 0.375 0
0.5625 0.3125 0
0.625 0.3125 0
0.5625 0.375 0
0.625 0.375 0
0.625 0.25 0
0.6875 0.25 0
0.625 0.3125 0
0.6875 0.3125 0
0.6875 0.25 0
0.75 0.25 0
0.6875 0.3125 0
0.75 0.3125 0
0.625 0.3125 0
0.6875 0.3125 0
0.625 0.375 0
0.6875 0.375 0
0.6875 0.3125 0
0.75 0.3125 0
0.6875 0.375 0
0.75 0.375 0
0.5 0.375 0
0.5625 0.375 0
0.5 0.4375 0
0.5625 0.4375 0
0.5625 0.375 0
0.625 0.375 0
0.5625 0.4375 0
0.625 0.4375 0
0.5 0.4375 0
0.5625 0.4375 0
0.5 0.5 0
0.5625 0.5 0
0.5625 0.4375 0
0.625 0.4375 0
0.5625 0.5 0
0.625 0.5 0
0.625 0.375 0
0.6875 0.375 0
0.625 0.4375 0
0.6875 0.4375 0
0.6875 0.375 0
0.75 0.375 0
0.6875 0.4375 0
0.75 0.4375 0
0.625 0.4375 0
0.6875 0.4375 0
0.625 0.5 0
0.6875 0.5 0
0.6875 0.4375 0
0.75 0.4375 0
0.6875 0.5 0
0.75 0.5 0
0.75 0.25 0
0.8125 0.25 0
0.75 0.3125 0
0.8125 0.3125 0
0.8125 0.25 0
0.875 0.25 0
0.8125 0.3125 0
0.875 0.3125 0
0.75 0.3125 0
0.8125 0.3125 0
0.75 0.375 0
0.8125 0.375 0
0.8125 0.3125 0
0.875 0.3125 0
0.8125 0.375 0
0.875 0.375 0
0.875 0.25 0
0.9375 0.25 0
0.875 0.3125 0
0.9375 0.3125 0
0.9375 0.25 0
1 0.25 0
0.9375 0.3125 0
1 0.3125 0
0.875 0.3125 0
0.9375 0.3125 0
0.875 0.375 0
0.9375 0.375 0
0.9375 0.3125 0
1 0.3125 0
0.9375 0.375 0
1 0.375 0
0.75 0.375 0
0.8125 0.375 0
0.75 0.4375 0
0.8125 0.4375 0
0.8125 0.375 0
0.875 0.375 0
0.8125 0.4375 0
0.875 0.4375 0
0.75 0.4375 0
0.8125 0.4375 0
0.75 0.5 0
0.8125 0.5 0
0.8125 0.4375 0
0.875 0.4375 0
0.8125 0.5 0
0.875 0.5 0
0.875 0.375 0
0.9375 0.375 0
0.875 0.4375 0
0.9375 0.4375 0
0.9375 0.375 0
1 0.375 0
0.9375 0.4375 0
1 0.4375 0
0.875 0.4375 0
0.9375 0.4375 0
0.875 0.5 0
0.9375 0.5 0
0.9375 0.4375 0
1 0.4375 0
0.9375 0.5 0
1 0.5 0
0 0.5 0
0.0625 0.5 0
0 0.5625 0
0.0625 0.5625 0
0.0625 0.5 0
0.125 0.5 0
0.0625 0.5625 0
0.125 0.5625 0
0 0.5625 0
0.0625 0.5625 0
0 0.625 0
0.0625 0.625 0
0.0625 0.5625 0
0.125 0.5625 0
0.0625 0.625 0
0.125 0.625 0
0.125 0.5 0
0.1875 0.5 0
0.125 0.5625 0
0.1875 0.5625 0
0.1875 0.5 0
0.25 0.5 0
0.1875 0.5625 0
0.25 0.5625 0
0.125 0.5625 0
0.1875 0.5625 0
0.125 0.625 0
0.1875 0.625 0
0.1875 0.5625 0
0.25 0.5625 0
0.1875 0.625 0
0.25 0.625 0
0 0.625 0
0.0625 0.625 0
0 0.6875 0
0.0625 0.6875 0
0.0625 0.625 0
0.125 0.625 0
0.0625 0.6875 0
0.125 0.6875 0
0 0.6875 0
0.0625 0.6875 0
0 0.75 0
0.0625 0.75 0
0.0625 0.6875 0
0.125 0.6875 0
0.0625 0.75 0
0.125 0.75 0
0.125 0.625 0
0.1875 0.625 0
0.125 0.6875 0
0.1875 0.6875 0
0.1875 0.625 0
0.25 0.625 0
0.1875 0.6875 0
0.25 0.6875 0
0.125 0.6875 0
0.1875 0.6875 0
0.125 0.75 0
0.1875 0.75 0
0.1875 0.6875 0
0.25 0.6875 0
0.1875 0.75 0
0.25 0.75 0
0.25 0.5 0
0.3125 0.5 0
0.25 0.5625 0
0.3125 0.5625 0
0.3125 0.5 0
0.375 0.5 0
0.3125 0.5625 0
0.375 0.5625 0
0.25 0.5625 0
0.3125 0.5625 0
0.25 0.625 0
0.3125 0.625 0
0.3125 0.5625 0
0.375 0.5625 0
0.3125 0.625 0
0.375 0.625 0
0.375 0.5 0
0.4375 0.5 0
0.375 0.5625 0
0.4375 0.5625 0
0.4375 0.5 0
0.5 0.5 0
0.4375 0.5625 0
0.5 0.5625 0
0.375 0.5625 0
0.4375 0.5625 0
0.375 0.625 0
0.4375 0.625 0
0.4375 0.5625 0
0.5 0.5625 0
0.4375 0.625 0
0.5 0.625 0
0.25 0.625 0
0.3125 0.625 0
0.25 0.6875 0
0.3125 0.6875 0
0.3125 0.625 0
0.375 0.625 0
0.3125 0.6875 0
0.375 0.6875 0
0.25 0.6875 0
0.3125 0.6875 0
0.25 0.75 0
0.3125 0.75 0
0.3125 0.6875 0
0.375 0.6875 0
0.3125 0.75 0
0.375 0.75 0
0.375 0.625 0
0.4375 0.625 0
0.375 0.6875 0
0.4375 0.6875 0
0.4375 0.625 0
0.5 0.625 0
0.4375 0.6875 0
0.5 0.6875 0
0.375 0.6875 0
0.4375 0.6875 0
0.375 0.75 0
0.4375 0.75 0
0.4375 0.6875 0
0.5 0.6875 0
0.4375 0.75 0
0.5 0.75 0
0 0.75 0
0.0625 0.75 0
0 0.8125 0
0.0625 0.8125 0
0.0625 0.75 0
0.125 0.75 0
0.0625 0.8125 0
0.125 0.8125 0
0 0.8125 0
0.0625 0.8125 0
0 0.875 0
0.0625 0.875 0
0.0625 0.8125 0
0.125 0.8125 0
0.0625 0.875 0
0.125 0.875 0
0.125 0.75 0
0.1875 0.75 0
0.125 0.8125 0
0.1875 0.8125 0
0.1875 0.75 0
0.25 0.75 0
0.1875 0.8125 0
0.25 0.8125 0
0.125 0.8125 0
0.1875 0.8125 0
0.125 0.875 0
0.1875 0.875 0
0.1875 0.8125 0
0.25 0.8125 0
0.1875 0.875 0
0.25 0.875 0
0 0.875 0
0.0625 0.875 0
0 0.9375 0
0.0625 0.9375 0
0.0625 0.875 0
0.125 0.875 0
0.0625 0.9375 0
0.125 0.9375 0
0 0.9375 0
0.0625 0.9375 0
0 1 0
0.0625 1 0
0.0625 0.9375 0
0.125 0.9375 0
0.0625 1 0
0.125 1 0
0.125 0.875 0
0.1875 0.875 0
0.125 0.9375 0
0.1875 0.9375 0
0.1875 0.875 0
0.25 0.875 0
0.1875 0.9375 0
0.25 0.9375 0
0.125 0.9375 0
0.1875 0.9375 0
0.125 1 0
0.1875 1 0
0.1875 0.9375 0
0.25 0.9375 0
0.1875 1 0
0.25 1 0
0.25 0.75 0
0.3125 0.75 0
0.25 0.8125 0
0.3125 0.8125 0
0.3125 0.75 0
0.375 0.75 0
0.3125 0.8125 0
0.375 0.8125 0
0.25 0.8125 0
0.3125 0.8125 0
0.25 0.875 0
0.3125 0.875 0
0.3125 0.8125 0
0.375 0.8125 0
0.3125 0.875 0
0.375 0.875 0
0.375 0.75 0
0.4375 0.75 0
0.375 0.8125 0
0.4375 0.8125 0
0.4375 0.75 0
0.5 0.75 0
0.4375 0.8125 0
0.5 0.8125 0
0.375 0.8125 0
0.4375 0.8125 0
0.375 0.875 0
0.4375 0.875 0
0.4375 0.8125 0
0.5 0.8125 0
0.4375 0.875 0
0.5 0.875 0
0.25 0.875 0
0.3125 0.875 0
0.25 0.9375 0
0.3125 0.9375 0
0.3125 0.875 0
0.375 0.875 0
0.3125 0.9375 0
0.375 0.9375 0
0.25 0.9375 0
0.3125 0.9375 0
0.25 1 0
0.3125 1 0
0.3125 0.9375 0
0.375 0.9375 0
0.3125 1 0
0.375 1 0
0.375 0.875 0
0.4375 0.875 0
0.375 0.9375 0
0.4375 0.9375 0
0.4375 0.875 0
0.5 0.875 0
0.4375 0.9375 0
0.5 0.9375 0
0.375 0.9375 0
0.4375 0.9375 0
0.375 1 0
0.4375 1 0
0.4375 0.9375 0
0.5 0.9375 0
0.4375 1 0
0.5 1 0
0.5 0.5 0
0.5625 0.5 0
0.5 0.5625 0
0.5625 0.5625 0
0.5625 0.5 0
0.625 0.5 0
0.5625 0.5625 0
0.625 0.5625 0
0.5 0.5625 0
0.5625 0.5625 0
0.5 0.625 0
0.5625 0.625 0
0.5625 0.5625 0
0.625 0.5625 0
0.5625 0.625 0
0.625 0.625 0
0.625 0.5 0
0.6875 0.5 0
0.625 0.5625 0
0.6875 0.5625 0
0.6875 0.5 0
0.75 0.5 0
0.6875 0.5625 0
0.75 0.5625 0
0.625 0.5625 0
0.6875 0.5625 0
0.625 0.625 0
0.6875 0.625 0
0.6875 0.5625 0
0.75 0.5625 0
0.6875 0.625 0
0.75 0.625 0
0.5 0.625 0
0.5625 0.625 0
0.5 0.6875 0
0.5625 0.6875 0
0.5625 0.625 0
0.625 0.625 0
0.5625 0.6875 0
0.625 0.6875 0
0.5 0.6875 0
0.5625 0.6875 0
0.5 0.75 0
0.5625 0.75 0
0.5625 0.6875 0
0.625 0.6875 0
0.5625 0.75 0
0.625 0.75 0
0.625 0.625 0
0.6875 0.625 0
0.625 0.6875 0
0.6875 0.6875 0
0.6875 0.625 0
0.75 0.625 0
0.6875 0.6875 0
0.75 0.6875 0
0.625 0.6875 0
0.6875 0.6875 0
0.625 0.75 0
0.6875 0.75 0
0.6875 0.6875 0
0.75 0.6875 0
0.6875 0.75 0
0.75 0.75 0
0.75 0.5 0
0.8125 0.5 0
0.75 0.5625 0
0.8125 0.5625 0
0.8125 0.5 0
0.875 0.5 0
0.8125 0.5625 0
0.875 0.5625 0
0.75 0.5625 0
0.8125 0.5625 0
0.75 0.625 0
0.8125 0.625 0
0.8125 0.5625 0
0.875 0.5625 0
0.8125 0.625 0
0.875 0.625 0
0.875 0.5 0
0.9375 0.5 0
0.875 0.5625 0
0.9375 0.5625 0
0.9375 0.5 0
1 0.5 0
0.9375 0.5625 0
1 0.5625 0
0.875 0.5625 0
0.9375 0.5625 0
0.875 0.625 0
0.9375 0.625 0
0.9375 0.5625 0
1 0.5625 0
0.9375 0.625 0
1 0.625 0
0.75 0.625 0
0.8125 0.625 0
0.75 0.6875 0
0.8125 0.6875 0
0.8125 0.625 0
0.875 0.625 0
0.8125 0.6875 0
0.875 0.6875 0
0.75 0.6875 0
0.8125 0.6875 0
0.75 0.75 0
0.8125 0.75 0
0.8125 0.6875 0
0.875 0.6875 0
0.8125 0.75 0
0.875 0.75 0
0.875 0.625 0
0.9375 0.625 0
0.875 0.6875 0
0.9375 0.6875 0
0.9375 0.625 0
1 0.625 0
0.9375 0.6875 0
1 0.6875 0
0.875 0.6875 0
0.9375 0.6875 0
0.875 0.75 0
0.9375 0.75 0
0.9375 0.6875 0
1 0.6875 0
0.9375 0.75 0
1 0.75 0
0.5 0.75 0
0.5625 0.75 0
0.5 0.8125 0
0.5625 0.8125 0
0.5625 0.75 0
0.625 0.75 0
0.5625 0.8125 0
0.625 0.8125 0
0.5 0.8125 0
0.5625 0.8125 0
0.5 0.875 0
0.5625 0.875 0
0.5625 0.8125 0
0.625 0.8125 0
0.5625 0.875 0
0.625 0.875 0
0.625 0.75 0
0.6875 0.75 0
0.625 0.8125 0
0.6875 0.8125 0
0.6875 0.75 0
0.75 0.75 0
0.6875 0.8125 0
0.75 0.8125 0
0.625 0.8125 0
0.6875 0.8125 0
0.625 0.875 0
0.6875 0.875 0
0.6875 0.8125 0
0.75 0.8125 0
0.6875 0.875 0
0.75 0.875 0
0.5 0.875 0
0.5625 0.875 0
0.5 0.9375 0
0.5625 0.9375 0
0.5625 0.875 0
0.625 0.875 0
0.5625 0.9375 0
0.625 0.9375 0
0.5 0.9375 0
0.5625 0.9375 0
0.5 1 0
0.5625 1 0
0.5625 0.9375 0
0.625 0.9375 0
0.5625 1 0
0.625 1 0
0.625 0.875 0
0.6875 0.875 0
0.625 0.9375 0
0.6875 0.9375 0
0.6875 0.875 0
0.75 0.875 0
0.6875 0.9375 0
0.75 0.9375 0
0.625 0.9375 0
0.6875 0.9375 0
0.625 1 0
0.6875 1 0
0.6875 0.9375 0
0.75 0.9375 0
0.6875 1 0
0.75 1 0
0.75 0.75 0
0.8125 0.75 0
0.75 0.8125 0
0.8125 0.8125 0
0.8125 0.75 0
0.875 0.75 0
0.8125 0.8125 0
0.875 0.8125 0
0.75 0.8125 0
0.8125 0.8125 0
0.75 0.875 0
0.8125 0.875 0
0.8125 0.8125 0
0.875 0.8125 0
0.8125 0.875 0
0.875 0.875 0
0.875 0.75 0
0.9375 0.75 0
0.875 0.8125 0
0.9375 0.8125 0
0.9375 0.75 0
1 0.75 0
0.9375 0.8125 0
1 0.8125 0
0.875 0.8125 0
0.9375 0.8125 0
0.875 0.875 0
0.9375 0.875 0
0.9375 0.8125 0
1 0.8125 0
0.9375 0.875 0
1 0.875 0
0.75 0.875 0
0.8125 0.875 0
0.75 0.9375 0
0.8125 0.9375 0
0.8125 0.875 0
0.875 0.875 0
0.8125 0.9375 0
0.875 0.9375 0
0.75 0.9375 0
0.8125 0.9375 0
0.75 1 0
0.8125 1 0
0.8125 0.9375 0
0.875 0.9375 0
0.8125 1 0
0.875 1 0
0.875 0.875 0
0.9375 0.875 0
0.875 0.9375 0
0.9375 0.9375 0
0.9375 0.875 0
1 0.875 0
0.9375 0.9375 0
1 0.9375 0
0.875 0.9375 0
0.9375 0.9375 0
0.875 1 0
0.9375 1 0
0.9375 0.9375 0
1 0.9375 0
0.9375 1 0
1 1 0

CELLS 256 1280
4	0	1	3	2
4	4	5	7	6
4	8	9	11	10
4	12	13	15	14
4	16	17	19	18
4	20	21	23	22
4	24	25	27	26
4	28	29	31	30
4	32	33	35	34
4	36	37	39	38
4	40	41	43	42
4	44	45	47	46
4	48	49	51	50
4	52	53	55	54
4	56	57	59	58
4	60	61	63	62
4	64	65	67	66
4	68	69	71	70
4	72	73	75	74
4	76	77	79	78
4	80	81	83	82
4	84	85	87	86
4	88	89	91	90
4	92	93	95	94
4	96	97	99	98
4	100	101	103	102
4	104	105	107	106
4	108	109	111	110
4	112	113	115	114
4	116	117	119	118
4	120	121	123	122
4	124	125	127	126
4	128	129	131	130
4	132	133	135	134
4	136	137	139	138
4	140	141	143	142
4	144	145	147	146
4	148	149	151	150
4	152	153	155	154
4	156	157	159	158
4	160	161	163	162
4	164	165	167	166
4	168	169	171	170
4	172	173	175	174
4	176	177	179	178
4	180	181	183	182
4	184	185	187	186
4	188	189	191	190
4	192	193	195	194
4	196	197	199	198
4	200	201	203	202
4	204	205	207	206
4	208	209	211	210
4	212	213	215	214
4	216	217	219	218
4	220	221	223	222
4	224	225	227	226
4	228	229	231	230
4	232	233	235	234
4	236	237	239	238
4	240	241	243	242
4	244	245	247	246
4	248	249	251	250
4	252	253	255	254
4	256	257	259	258
4	260	261	263	262
4	264	265	267	266
4	268	269	271	270
4	272	273	275	274
4	276	277	279	278
4	280	281	283	282
4	284	285	287	286
4	288	289	291	290
4	292	293	295	294
4	296	297	299	298
4	300	301	303	302
4	304	305	307	306
4	308	309	311	310
4	312	313	315	314
4	316	317	319	318
4	320	321	323	322
4	324	325	327	326
4	328	329	331	330
4	332	333	335	334
4	336	337	339	338
4	340	341	343	342
4	344	345	347	346
4	348	349	351	350
4	352	353	355	354
4	356	357	359	358
4	360	361	363	362
4	364	365	367	366
4	368	369	371	370
4	372	373	375	374
4	376	377	379	378
4	380	381	383	382
4	384	385	387	386
4	388	389	391	390
4	392	393	395	394
4	396	397	399	398
4	400	401	403	402
4	404	405	407	406
4	408	409	411	410
4	412	413	415	414
4	416	417	419	418
4	420	421	423	422
4	424	425	427	426
4	428	429	431	430
4	432	433	435	434
4	436	437	439	438
4	440	441	443	442
4	444	445	447	446
4	448	449	451	450
4	452	453	455	454
4	456	457	459	458
4	460	461	463	462
4	464	465	467	466
4	468	469	471	470
4	472	473	475	474
4	476	477	479	478
4	480	481	483	482
4	484	485	487	486
4	488	489	491	490
4	492	493	495	494
4	496	497	499	498
4	500	501	503	502
4	504	505	507	506
4	508	509	511	510
4	512	513	515	514
4	516	517	519	518
4	520	521	523	522
4	524	525	527	526
4	528	529	531	530
4	532	533	535	534
4	536	537	539	538
4	540	541	543	542
4	544	545	547	546
4	548	549	551	550
4	552	553	555	554
4	556	557	559	558
4	560	561	563	562
4	564	565	567	566
4	568	569	571	570
4	572	573	575	574
4	576	577	579	578
4	580	581	583	582
4	584	585	587	586
4	588	589	591	590
4	592	593	595	594
4	596	597	599	598
4	600	601	603	602
4	604	605	607	606
4	608	609	611	610
4	612	613	615	614
4	616	617	619	618
4	620	621	623	622
4	624	625	627	626
4	628	629	631	630
4	632	633	635	634
4	636	637	639	638
4	640	641	643	642
4	644	645	647	646
4	648	649	651	650
4	652	653	655	654
4	656	657	659	658
4	660	661	663	662
4	664	665	667	666
4	668	669	671	670
4	672	673	675	674
4	676	677	679	678
4	680	681	683	682
4	684	685	687	686
4	688	689	691	690
4	692	693	695	694
4	696	697	699	698
4	700	701	703	702
4	704	705	707	706
4	708	709	711	710
4	712	713	715	714
4	716	717	719	718
4	720	721	723	722
4	724	725	727	726
4	728	729	731	730
4	732	733	735	734
4	736	737	739	738
4	740	741	743	742
4	744	745	747	746
4	748	749	751	750
4	752	753	755	754
4	756	757	759	758
4	760	761	763	762
4	764	765	767	766
4	768	769	771	770
4	772	773	775	774
4	776	777	779	778
4	780	781	783	782
4	784	785	787	786
4	788	789	791	790
4	792	793	795	794
4	796	797	799	798
4	800	801	803	802
4	804	805	807	806
4	808	809	811	810
4	812	813	815	814
4	816	817	819	818
4	820	821	823	822
4	824	825	827	826
4	828	829	831	830
4	832	833	835	834
4	836	837	839	838
4	840	841	843	842
4	844	845	847	846
4	848	849	851	850
4	852	853	855	854
4	856	857	859	858
4	860	861	863	862
4	864	865	867	866
4	868	869	871	870
4	872	873	875	874
4	876	877	879	878
4	880	881	883	882
4	884	885	887	886
4	888	889	891	890
4	892	893	895	894
4	896	897	899	898
4	900	901	903	902
4	904	905	907	906
4	908	909	911	910
4	912	913	915	914
4	916	917	919	918
4	920	921	923	922
4	924	925	927	926
4	928	929	931	930
4	932	933	935	934
4	936	937	939	938
4	940	941	943	942
4	944	945	947	946
4	948	949	951	950
4	952	953	955	954
4	956	957	959	958
4	960	961	963	962
4	964	965	967	966
4	968	969	971	970
4	972	973	975	974
4	976	977	979	978
4	980	981	983	982
4	984	985	987	986
4	988	989	991	990
4	992	993	995	994
4	996	997	999	998
4	1000	1001	1003	1002
4	1004	1005	1007	1006
4	1008	1009	1011	1010
4	1012	1013	1015	1014
4	1016	1017	1019	1018
4	1020	1021	1023	1022

CELL_TYPES 256
 9 9 9 9 9 9 9 9 9 9 9 9 9 9 9 9 9 9 9 9 9 9 9 9 9 9 9 9 9 9 9 9 9 9 9 9 9 9 9 9 9 9 9 9 9 9 9 9 9 9 9 9 9 9 9 9 9 9 9 9 9 9 9 9 9 9 9 9 9 9 9 9 9 9 9 9 9 9 9 9 9 9 9 9 9 9 9 9 9 9 9 9 9 9 9 9 9 9 9 9 9 9 9 9 9 9 9 9 9 9 9 9 9 9 9 9 9 9 9 9 9 9 9 9 9 9 9 9 9 9 9 9 9 9 9 9 9 9 9 9 9 9 9 9 9 9 9 9 9 9 9 9 9 9 9 9 9 9 9 9 9 9 9 9 9 9 9 9 9 9 9 9 9 9 9 9 9 9 9 9 9 9 9 9 9 9 9 9 9 9 9 9 9 9 9 9 9 9 9 9 9 9 9 9 9 9 9 9 9 9 9 9 9 9 9 9 9 9 9 9 9 9 9 9 9 9 9 9 9 9 9 9 9 9 9 9 9 9 9 9 9 9 9 9 9 9 9 9 9 9 9 9 9 9 9 9
POINT_DATA 1024
VECTORS velocity double
0 0 0
0.0217166 0 0
0 -0.0217166 0
0.0217166 -0.0217166 0
0.0217166 0 0
0.0638126 0 0
0.0217166 -0.042096 0
0.0638126 -0.042096 0
0 -0.0217166 0
0.042096 -0.0217166 0
0 -0.0638126 0
0.042096 -0.0638126 0
0.042096 -0.042096 0
0.153325 -0.042096 0
0.042096 -0.153325 0
0.153325 -0.153325 0
0.0638126 0 0
0.117927 0 0
0.0638126 -0.0541149 0
0.117927 -0.0541149 0
0.117927 0 0
0.17766 0 0
0.117927 -0.0597322 0
0.17766 -0.0597322 0
0.153325 -0.0541149 0
0.313418 -0.0541149 0
0.153325 -0.214207 0
0.313418 -0.214207 0
0.313418 -0.0597322 0
0.49847 -0.0597322 0
0.313418 -0.244785 0
0.49847 -0.244785 0
0 -0.0638126 0
0.0541149 -0.0638126 0
0 -0.117927 0
0.0541149 -0.117927 0
0.0541149 -0.153325 0
0.214207 -0.153325 0
0.0541149 -0.313418 0
0.214207 -0.313418 0
0 -0.117927 0
0.0597322 -0.117927 0
0 -0.17766 0
0.0597322 -0.17766 0
0.0597322 -0.313418 0
0.244785 -0.313418 0
0.0597322 -0.49847 0
0.244785 -0.49847 0
0.214207 -0.214207 0
0.455994 -0.214207 0
0.214207 -0.455994 0
0.455994 -0.455994 0
0.455994 -0.244785 0
0.742022 -0.244785 0
0.455994 -0.530813 0
0.742022 -0.530813 0
0.244785 -0.455994 0
0.530813 -0.455994 0
0.244785 -0.742022 0
0.530813 -0.742022 0
0.530813 -0.530813 0
0.873703 -0.530813 0
0.530813 -0.873703 0
0.873703 -0.873703 0
0.17766 0 0
0.235705 0 0
0.17766 -0.0580449 0
0.235705 -0.0580449 0
0.235705 0 0
0.284322 0 0
0.235705 -0.0486174 0
0.284322 -0.0486174 0
0.49847 -0.0580449 0
0.681742 -0.0580449 0
0.49847 -0.241317 0
0.681742 -0.241317 0
0.681742 -0.0486174 0
0.836458 -0.0486174 0
0.681742 -0.203333 0
0.836458 -0.203333 0
0.284322 0 0
0.31665 0 0
0.284322 -0.0323283 0
0.31665 -0.0323283 0
0.31665 0 0
0.327984 0 0
0.31665 -0.0113334 0
0.327984 -0.0113334 0
0.836458 -0.0323283 0
0.939663 -0.0323283 0
0.836458 -0.135533 0
0.939663 -0.135533 0
0.939663 -0.0113334 0
0.975884 -0.0113334 0
0.939663 -0.0475546 0
0.975884 -0.0475546 0
0.742022 -0.241317 0
1.02844 -0.241317 0
0.742022 -0.527732 0
1.02844 -0.527732 0
1.02844 -0.203333 0
1.27148 -0.203333 0
1.02844 -0.446374 0
1.27148 -0.446374 0
0.873703 -0.527732 0
1.21959 -0.527732 0
0.873703 -0.873618 0
1.21959 -0.873618 0
1.21959 -0.446374 0
1.51425 -0.446374 0
1.21959 -0.741032 0
1.51425 -0.741032 0
1.27148 -0.135533 0
1.43399 -0.135533 0
1.27148 -0.298042 0
1.43399 -0.298042 0
1.43399 -0.0475546 0
1.49107 -0.0475546 0
1.43399 -0.104642 0
1.49107 -0.104642 0
1.51425 -0.298042 0
1.71166 -0.298042 0
1.51425 -0.495451 0
1.71166 -0.495451 0
1.71166 -0.104642 0
1.78106 -0.104642 0
1.71166 -0.174045 0
1.78106 -0.174045 0
0 -0.17766 0
0.0580449 -0.17766 0
0 -0.235705 0
0.0580449 -0.235705 0
0.0580449 -0.49847 0
0.241317 -0.49847 0
0.0580449 -0.681742 0
0.241317 -0.681742 0
0 -0.235705 0
0.0486174 -0.235705 0
0 -0.284322 0
0.0486174 -0.284322 0
0.0486174 -0.681742 0
0.203333 -0.681742 0
0.0486174 -0.836458 0
0.203333 -0.836458 0
0.241317 -0.742022 0
0.527732 -0.742022 0
0.241317 -1.02844 0
0.527732 -1.02844 0
0.527732 -0.873703 0
0.873618 -0.873703 0
0.527732 -1.21959 0
0.873618 -1.21959 0
0.203333 -1.02844 0
0.446374 -1.02844 0
0.203333 -1.27148 0
0.446374 -1.27148 0
0.446374 -1.21959 0
0.741032 -1.21959 0
0.446374 -1.51425 0
0.741032 -1.51425 0
0 -0.284322 0
0.0323283 -0.284322 0
0 -0.31665 0
0.0323283 -0.31665 0
0.0323283 -0.836458 0
0.135533 -0.836458 0
0.0323283 -0.939663 0
0.135533 -0.939663 0
0 -0.31665 0
0.0113334 -0.31665 0
0 -0.327984 0
0.0113334 -0.327984 0
0.0113334 -0.939663 0
0.0475546 -0.939663 0
0.0113334 -0.975884 0
0.0475546 -0.975884 0
0.135533 -1.27148 0
0.298042 -1.27148 0
0.135533 -1.43399 0
0.298042 -1.43399 0
0.298042 -1.51425 0
0.495451 -1.51425 0
0.298042 -1.71166 0
0.495451 -1.71166 0
0.0475546 -1.43399 0
0.104642 -1.43399 0
0.0475546 -1.49107 0
0.104642 -1.49107 0
0.104642 -1.71166 0
0.174045 -1.71166 0
0.104642 -1.78106 0
0.174045 -1.78106 0
0.873618 -0.873618 0
1.22416 -0.873618 0
0.873618 -1.22416 0
1.22416 -1.22416 0
1.22416 -0.741032 0
1.52361 -0.741032 0
1.22416 -1.04048 0
1.52361 -1.04048 0
0.741032 -1.22416 0
1.04048 -1.22416 0
0.741032 -1.52361 0
1.04048 -1.52361 0
1.04048 -1.04048 0
1.29676 -1.04048 0
1.04048 -1.29676 0
1.29676 -1.29676 0
1.52361 -0.495451 0
1.72454 -0.495451 0
1.52361 -0.696377 0
1.72454 -0.696377 0
1.72454 -0.174045 0
1.79522 -0.174045 0
1.72454 -0.244732 0
1.79522 -0.244732 0
1.29676 -0.696377 0
1.4689 -0.696377 0
1.29676 -0.868517 0
1.4689 -0.868517 0
1.4689 -0.244732 0
1.52949 -0.244732 0
1.4689 -0.305321 0
1.52949 -0.305321 0
0.495451 -1.52361 0
0.696377 -1.52361 0
0.495451 -1.72454 0
0.696377 -1.72454 0
0.696377 -1.29676 0
0.868517 -1.29676 0
0.696377 -1.4689 0
0.868517 -1.4689 0
0.174045 -1.72454 0
0.244732 -1.72454 0
0.174045 -1.79522 0
0.244732 -1.79522 0
0.244732 -1.4689 0
0.305321 -1.4689 0
0.244732 -1.52949 0
0.305321 -1.52949 0
0.868517 -0.868517 0
0.984218 -0.868517 0
0.868517 -0.984218 0
0.984218 -0.984218 0
0.984218 -0.305321 0
1.02496 -0.305321 0
0.984218 -0.346058 0
1.02496 -0.346058 0
0.305321 -0.984218 0
0.346058 -0.984218 0
0.305321 -1.02496 0
0.346058 -1.02496 0
0.346058 -0.346058 0
0.360403 -0.346058 0
0.346058 -0.360403 0
0.360403 -0.360403 0
0.327984 0 0
0.31665 0 0
0.327984 0.0113334 0
0.31665 0.0113334 0
0.31665 0 0
0.284322 0 0
0.31665 0.0323283 0
0.284322 0.0323283 0
0.975884 0.0113334 0
0.939663 0.0113334 0
0.975884 0.0475546 0
0.939663 0.0475546 0
0.939663 0.0323283 0
0.836458 0.0323283 0
0.939663 0.135533 0
0.836458 0.135533 0
0.284322 0 0
0.235705 0 0
0.284322 0.0486174 0
0.235705 0.0486174 0
0.235705 0 0
0.17766 0 0
0.235705 0.0580449 0
0.17766 0.0580449 0
0.836458 0.0486174 0
0.681742 0.0486174 0
0.836458 0.203333 0
0.681742 0.203333 0
0.681742 0.0580449 0
0.49847 0.0580449 0
0.681742 0.241317 0
0.49847 0.241317 0
1.49107 0.0475546 0
1.43399 0.0475546 0
1.49107 0.104642 0
1.43399 0.104642 0
1.43399 0.135533 0
1.27148 0.135533 0
1.43399 0.298042 0
1.27148 0.298042 0
1.78106 0.104642 0
1.71166 0.104642 0
1.78106 0.174045 0
1.71166 0.174045 0
1.71166 0.298042 0
1.51425 0.298042 0
1.71166 0.495451 0
1.51425 0.495451 0
1.27148 0.203333 0
1.02844 0.203333 0
1.27148 0.446374 0
1.02844 0.446374 0
1.02844 0.241317 0
0.742022 0.241317 0
1.02844 0.527732 0
0.742022 0.527732 0
1.51425 0.446374 0
1.21959 0.446374 0
1.51425 0.741032 0
1.21959 0.741032 0
1.21959 0.527732 0
0.873703 0.527732 0
1.21959 0.873618 0
0.873703 0.873618 0
0.17766 0 0
0.117927 0 0
0.17766 0.0597322 0
0.117927 0.0597322 0
0.117927 0 0
0.0638126 0 0
0.117927 0.0541149 0
0.0638126 0.0541149 0
0.49847 0.0597322 0
0.313418 0.0597322 0
0.49847 0.244785 0
0.313418 0.244785 0
0.313418 0.0541149 0
0.153325 0.0541149 0
0.313418 0.214207 0
0.153325 0.214207 0
0.0638126 0 0
0.0217166 0 0
0.0638126 0.042096 0
0.0217166 0.042096 0
0.0217166 0 0
0 0 0
0.0217166 0.0217166 0
0 0.0217166 0
0.153325 0.042096 0
0.042096 0.042096 0
0.153325 0.153325 0
0.042096 0.153325 0
0.042096 0.0217166 0
0 0.0217166 0
0.042096 0.0638126 0
0 0.0638126 0
0.742022 0.244785 0
0.455994 0.244785 0
0.742022 0.530813 0
0.455994 0.530813 0
0.455994 0.214207 0
0.214207 0.214207 0
0.455994 0.455994 0
0.214207 0.455994 0
0.873703 0.530813 0
0.530813 0.530813 0
0.873703 0.873703 0
0.530813 0.873703 0
0.530813 0.455994 0
0.244785 0.455994 0
0.530813 0.742022 0
0.244785 0.742022 0
0.214207 0.153325 0
0.0541149 0.153325 0
0.214207 0.313418 0
0.0541149 0.313418 0
0.0541149 0.0638126 0
0 0.0638126 0
0.0541149 0.117927 0
0 0.117927 0
0.244785 0.313418 0
0.0597322 0.313418 0
0.244785 0.49847 0
0.0597322 0.49847 0
0.0597322 0.117927 0
0 0.117927 0
0.0597322 0.17766 0
0 0.17766 0
1.79522 0.174045 0
1.72454 0.174045 0
1.79522 0.244732 0
1.72454 0.244732 0
1.72454 0.495451 0
1.52361 0.495451 0
1.72454 0.696377 0
1.52361 0.696377 0
1.52949 0.244732 0
1.4689 0.244732 0
1.52949 0.305321 0
1.4689 0.305321 0
1.4689 0.696377 0
1.29676 0.696377 0
1.4689 0.868517 0
1.29676 0.868517 0
1.52361 0.741032 0
1.22416 0.741032 0
1.52361 1.04048 0
1.22416 1.04048 0
1.22416 0.873618 0
0.873618 0.873618 0
1.22416 1.22416 0
0.873618 1.22416 0
1.29676 1.04048 0
1.04048 1.04048 0
1.29676 1.29676 0
1.04048 1.29676 0
1.04048 1.22416 0
0.741032 1.22416 0
1.04048 1.52361 0
0.741032 1.52361 0
1.02496 0.305321 0
0.984218 0.305321 0
1.02496 0.346058 0
0.984218 0.346058 0
0.984218 0.868517 0
0.868517 0.868517 0
0.984218 0.984218 0
0.868517 0.984218 0
0.360403 0.346058 0
0.346058 0.346058 0
0.360403 0.360403 0
0.346058 0.360403 0
0.346058 0.984218 0
0.305321 0.984218 0
0.346058 1.02496 0
0.305321 1.02496 0
0.868517 1.29676 0
0.696377 1.29676 0
0.868517 1.4689 0
0.696377 1.4689 0
0.696377 1.52361 0
0.495451 1.52361 0
0.696377 1.72454 0
0.495451 1.72454 0
0.305321 1.4689 0
0.244732 1.4689 0
0.305321 1.52949 0
0.244732 1.52949 0
0.244732 1.72454 0
0.174045 1.72454 0
0.244732 1.79522 0
0.174045 1.79522 0
0.873618 0.873703 0
0.527732 0.873703 0
0.873618 1.21959 0
0.527732 1.21959 0
0.527732 0.742022 0
0.241317 0.742022 0
0.527732 1.02844 0
0.241317 1.02844 0
0.741032 1.21959 0
0.446374 1.21959 0
0.741032 1.51425 0
0.446374 1.51425 0
0.446374 1.02844 0
0.203333 1.02844 0
0.446374 1.27148 0
0.203333 1.27148 0
0.241317 0.49847 0
0.0580449 0.49847 0
0.241317 0.681742 0
0.0580449 0.681742 0
0.0580449 0.17766 0
0 0.17766 0
0.0580449 0.235705 0
0 0.235705 0
0.203333 0.681742 0
0.0486174 0.681742 0
0.203333 0.836458 0
0.0486174 0.836458 0
0.0486174 0.235705 0
0 0.235705 0
0.0486174 0.284322 0
0 0.284322 0
0.495451 1.51425 0
0.298042 1.51425 0
0.495451 1.71166 0
0.298042 1.71166 0
0.298042 1.27148 0
0.135533 1.27148 0
0.298042 1.43399 0
0.135533 1.43399 0
0.174045 1.71166 0
0.104642 1.71166 0
0.174045 1.78106 0
0.104642 1.78106 0
0.104642 1.43399 0
0.0475546 1.43399 0
0.104642 1.49107 0
0.0475546 1.49107 0
0.135533 0.836458 0
0.0323283 0.836458 0
0.135533 0.939663 0
0.0323283 0.939663 0
0.0323283 0.284322 0
0 0.284322 0
0.0323283 0.31665 0
0 0.31665 0
0.0475546 0.939663 0
0.0113334 0.939663 0
0.0475546 0.975884 0
0.0113334 0.975884 0
0.0113334 0.31665 0
0 0.31665 0
0.0113334 0.327984 0
0 0.327984 0
0 -0.327984 0
-0.0113334 -0.327984 0
0 -0.31665 0
-0.0113334 -0.31665 0
-0.0113334 -0.975884 0
-0.0475546 -0.975884 0
-0.0113334 -0.939663 0
-0.0475546 -0.939663 0
0 -0.31665 0
-0.0323283 -0.31665 0
0 -0.284322 0
-0.0323283 -0.284322 0
-0.0323283 -0.939663 0
-0.135533 -0.939663 0
-0.0323283 -0.836458 0
-0.135533 -0.836458 0
-0.0475546 -1.49107 0
-0.104642 -1.49107 0
-0.0475546 -1.43399 0
-0.104642 -1.43399 0
-0.104642 -1.78106 0
-0.174045 -1.78106 0
-0.104642 -1.71166 0
-0.174045 -1.71166 0
-0.135533 -1.43399 0