# vtk DataFile Version 3.0
#This file was generated by the deal.II library on 2017/9/21 at 11:18:05
ASCII
DATASET UNSTRUCTURED_GRID

POINTS 16 double
0 0 0
0.5 0 0
0 0.5 0
0.5 0.5 0
0.5 0 0
1 0 0
0.5 0.5 0
1 0.5 0
0 0.5 0
0.5 0.5 0
0 1 0
0.5 1 0
0.5 0.5 0
1 0.5 0
0.5 1 0
1 1 0

CELLS 4 20
4	0	1	3	2
4	4	5	7	6
4	8	9	11	10
4	12	13	15	14

CELL_TYPES 4
 9 9 9 9
POINT_DATA 16
VECTORS velocity double
0 0 0
2.48736 0 0
0 -2.48736 0
2.48736 -2.48736 0
2.48736 0 0
0 0 0
2.48736 2.48736 0
0 2.48736 0
0 -2.48736 0
-2.48736 -2.48736 0
0 0 0
-2.48736 0 0
-2.48736 2.48736 0
0 2.48736 0
-2.48736 0 0
0 0 0
SCALARS pressure double 1
LOOKUP_TABLE default
0.406622 0.406622 0.406622 0.406622 -0.406622 -0.406622 -0.406622 -0.406622 0.406622 0.406622 0.406622 0.406622 -0.406622 -0.406622 -0.406622 -0.406622 
SCALARS global_div_diff double 1
LOOKUP_TABLE default
4.44089e-16 4.44089e-16 4.44089e-16 4.44089e-16 1.33227e-15 1.33227e-15 1.33227e-15 1.33227e-15 8.88178e-16 8.88178e-16 8.88178e-16 8.88178e-16 8.88178e-16 8.88178e-16 8.88178e-16 8.88178e-16 
SCALARS cell_div_diff double 1
LOOKUP_TABLE default
4.44089e-16 4.44089e-16 4.44089e-16 4.44089e-16 1.33227e-15 1.33227e-15 1.33227e-15 1.33227e-15 8.88178e-16 8.88178e-16 8.88178e-16 8.88178e-16 8.88178e-16 8.88178e-16 8.88178e-16 8.88178e-16 
SCALARS global_l2_diff double 1
LOOKUP_TABLE default
0.472484 0.472484 0.472484 0.472484 0.472484 0.472484 0.472484 0.472484 0.472484 0.472484 0.472484 0.472484 0.472484 0.472484 0.472484 0.472484 
SCALARS global_h1_diff double 1
LOOKUP_TABLE default
6.39067 6.39067 6.39067 6.39067 6.39067 6.39067 6.39067 6.39067 6.39067 6.39067 6.39067 6.39067 6.39067 6.39067 6.39067 6.39067 
