# vtk DataFile Version 3.0
#This file was generated by the deal.II library on 2017/9/21 at 11:18:05
ASCII
DATASET UNSTRUCTURED_GRID

POINTS 4 double
0 0 0
1 0 0
0 1 0
1 1 0

CELLS 1 5
4	0	1	3	2

CELL_TYPES 1
 9
POINT_DATA 4
VECTORS velocity double
0 0 0
0 0 0
0 0 0
0 0 0
SCALARS pressure double 1
LOOKUP_TABLE default
0 0 0 0 
SCALARS global_div_diff double 1
LOOKUP_TABLE default
0 0 0 0 
SCALARS cell_div_diff double 1
LOOKUP_TABLE default
0 0 0 0 
SCALARS global_l2_diff double 1
LOOKUP_TABLE default
1.44881 1.44881 1.44881 1.44881 
SCALARS global_h1_diff double 1
LOOKUP_TABLE default
16.8105 16.8105 16.8105 16.8105 
