# vtk DataFile Version 3.0
#This file was generated by the deal.II library on 2017/9/21 at 11:07:04
ASCII
DATASET UNSTRUCTURED_GRID

POINTS 512 double
0 0 0
0.25 0 0
0 0.25 0
0.25 0.25 0
0 0 0.25
0.25 0 0.25
0 0.25 0.25
0.25 0.25 0.25
0.25 0 0
0.5 0 0
0.25 0.25 0
0.5 0.25 0
0.25 0 0.25
0.5 0 0.25
0.25 0.25 0.25
0.5 0.25 0.25
0 0.25 0
0.25 0.25 0
0 0.5 0
0.25 0.5 0
0 0.25 0.25
0.25 0.25 0.25
0 0.5 0.25
0.25 0.5 0.25
0.25 0.25 0
0.5 0.25 0
0.25 0.5 0
0.5 0.5 0
0.25 0.25 0.25
0.5 0.25 0.25
0.25 0.5 0.25
0.5 0.5 0.25
0 0 0.25
0.25 0 0.25
0 0.25 0.25
0.25 0.25 0.25
0 0 0.5
0.25 0 0.5
0 0.25 0.5
0.25 0.25 0.5
0.25 0 0.25
0.5 0 0.25
0.25 0.25 0.25
0.5 0.25 0.25
0.25 0 0.5
0.5 0 0.5
0.25 0.25 0.5
0.5 0.25 0.5
0 0.25 0.25
0.25 0.25 0.25
0 0.5 0.25
0.25 0.5 0.25
0 0.25 0.5
0.25 0.25 0.5
0 0.5 0.5
0.25 0.5 0.5
0.25 0.25 0.25
0.5 0.25 0.25
0.25 0.5 0.25
0.5 0.5 0.25
0.25 0.25 0.5
0.5 0.25 0.5
0.25 0.5 0.5
0.5 0.5 0.5
0.5 0 0
0.75 0 0
0.5 0.25 0
0.75 0.25 0
0.5 0 0.25
0.75 0 0.25
0.5 0.25 0.25
0.75 0.25 0.25
0.75 0 0
1 0 0
0.75 0.25 0
1 0.25 0
0.75 0 0.25
1 0 0.25
0.75 0.25 0.25
1 0.25 0.25
0.5 0.25 0
0.75 0.25 0
0.5 0.5 0
0.75 0.5 0
0.5 0.25 0.25
0.75 0.25 0.25
0.5 0.5 0.25
0.75 0.5 0.25
0.75 0.25 0
1 0.25 0
0.75 0.5 0
1 0.5 0
0.75 0.25 0.25
1 0.25 0.25
0.75 0.5 0.25
1 0.5 0.25
0.5 0 0.25
0.75 0 0.25
0.5 0.25 0.25
0.75 0.25 0.25
0.5 0 0.5
0.75 0 0.5
0.5 0.25 0.5
0.75 0.25 0.5
0.75 0 0.25
1 0 0.25
0.75 0.25 0.25
1 0.25 0.25
0.75 0 0.5
1 0 0.5
0.75 0.25 0.5
1 0.25 0.5
0.5 0.25 0.25
0.75 0.25 0.25
0.5 0.5 0.25
0.75 0.5 0.25
0.5 0.25 0.5
0.75 0.25 0.5
0.5 0.5 0.5
0.75 0.5 0.5
0.75 0.25 0.25
1 0.25 0.25
0.75 0.5 0.25
1 0.5 0.25
0.75 0.25 0.5
1 0.25 0.5
0.75 0.5 0.5
1 0.5 0.5
0 0.5 0
0.25 0.5 0
0 0.75 0
0.25 0.75 0
0 0.5 0.25
0.25 0.5 0.25
0 0.75 0.25
0.25 0.75 0.25
0.25 0.5 0
0.5 0.5 0
0.25 0.75 0
0.5 0.75 0
0.25 0.5 0.25
0.5 0.5 0.25
0.25 0.75 0.25
0.5 0.75 0.25
0 0.75 0
0.25 0.75 0
0 1 0
0.25 1 0
0 0.75 0.25
0.25 0.75 0.25
0 1 0.25
0.25 1 0.25
0.25 0.75 0
0.5 0.75 0
0.25 1 0
0.5 1 0
0.25 0.75 0.25
0.5 0.75 0.25
0.25 1 0.25
0.5 1 0.25
0 0.5 0.25
0.25 0.5 0.25
0 0.75 0.25
0.25 0.75 0.25
0 0.5 0.5
0.25 0.5 0.5
0 0.75 0.5
0.25 0.75 0.5
0.25 0.5 0.25
0.5 0.5 0.25
0.25 0.75 0.25
0.5 0.75 0.25
0.25 0.5 0.5
0.5 0.5 0.5
0.25 0.75 0.5
0.5 0.75 0.5
0 0.75 0.25
0.25 0.75 0.25
0 1 0.25
0.25 1 0.25
0 0.75 0.5
0.25 0.75 0.5
0 1 0.5
0.25 1 0.5
0.25 0.75 0.25
0.5 0.75 0.25
0.25 1 0.25
0.5 1 0.25
0.25 0.75 0.5
0.5 0.75 0.5
0.25 1 0.5
0.5 1 0.5
0.5 0.5 0
0.75 0.5 0
0.5 0.75 0
0.75 0.75 0
0.5 0.5 0.25
0.75 0.5 0.25
0.5 0.75 0.25
0.75 0.75 0.25
0.75 0.5 0
1 0.5 0
0.75 0.75 0
1 0.75 0
0.75 0.5 0.25
1 0.5 0.25
0.75 0.75 0.25
1 0.75 0.25
0.5 0.75 0
0.75 0.75 0
0.5 1 0
0.75 1 0
0.5 0.75 0.25
0.75 0.75 0.25
0.5 1 0.25
0.75 1 0.25
0.75 0.75 0
1 0.75 0
0.75 1 0
1 1 0
0.75 0.75 0.25
1 0.75 0.25
0.75 1 0.25
1 1 0.25
0.5 0.5 0.25
0.75 0.5 0.25
0.5 0.75 0.25
0.75 0.75 0.25
0.5 0.5 0.5
0.75 0.5 0.5
0.5 0.75 0.5
0.75 0.75 0.5
0.75 0.5 0.25
1 0.5 0.25
0.75 0.75 0.25
1 0.75 0.25
0.75 0.5 0.5
1 0.5 0.5
0.75 0.75 0.5
1 0.75 0.5
0.5 0.75 0.25
0.75 0.75 0.25
0.5 1 0.25
0.75 1 0.25
0.5 0.75 0.5
0.75 0.75 0.5
0.5 1 0.5
0.75 1 0.5
0.75 0.75 0.25
1 0.75 0.25
0.75 1 0.25
1 1 0.25
0.75 0.75 0.5
1 0.75 0.5
0.75 1 0.5
1 1 0.5
0 0 0.5
0.25 0 0.5
0 0.25 0.5
0.25 0.25 0.5
0 0 0.75
0.25 0 0.75
0 0.25 0.75
0.25 0.25 0.75
0.25 0 0.5
0.5 0 0.5
0.25 0.25 0.5
0.5 0.25 0.5
0.25 0 0.75
0.5 0 0.75
0.25 0.25 0.75
0.5 0.25 0.75
0 0.25 0.5
0.25 0.25 0.5
0 0.5 0.5
0.25 0.5 0.5
0 0.25 0.75
0.25 0.25 0.75
0 0.5 0.75
0.25 0.5 0.75
0.25 0.25 0.5
0.5 0.25 0.5
0.25 0.5 0.5
0.5 0.5 0.5
0.25 0.25 0.75
0.5 0.25 0.75
0.25 0.5 0.75
0.5 0.5 0.75
0 0 0.75
0.25 0 0.75
0 0.25 0.75
0.25 0.25 0.75
0 0 1
0.25 0 1
0 0.25 1
0.25 0.25 1
0.25 0 0.75
0.5 0 0.75
0.25 0.25 0.75
0.5 0.25 0.75
0.25 0 1
0.5 0 1
0.25 0.25 1
0.5 0.25 1
0 0.25 0.75
0.25 0.25 0.75
0 0.5 0.75
0.25 0.5 0.75
0 0.25 1
0.25 0.25 1
0 0.5 1
0.25 0.5 1
0.25 0.25 0.75
0.5 0.25 0.75
0.25 0.5 0.75
0.5 0.5 0.75
0.25 0.25 1
0.5 0.25 1
0.25 0.5 1
0.5 0.5 1
0.5 0 0.5
0.75 0 0.5
0.5 0.25 0.5
0.75 0.25 0.5
0.5 0 0.75
0.75 0 0.75
0.5 0.25 0.75
0.75 0.25 0.75
0.75 0 0.5
1 0 0.5
0.75 0.25 0.5
1 0.25 0.5
0.75 0 0.75
1 0 0.75
0.75 0.25 0.75
1 0.25 0.75
0.5 0.25 0.5
0.75 0.25 0.5
0.5 0.5 0.5
0.75 0.5 0.5
0.5 0.25 0.75
0.75 0.25 0.75
0.5 0.5 0.75
0.75 0.5 0.75
0.75 0.25 0.5
1 0.25 0.5
0.75 0.5 0.5
1 0.5 0.5
0.75 0.25 0.75
1 0.25 0.75
0.75 0.5 0.75
1 0.5 0.75
0.5 0 0.75
0.75 0 0.75
0.5 0.25 0.75
0.75 0.25 0.75
0.5 0 1
0.75 0 1
0.5 0.25 1
0.75 0.25 1
0.75 0 0.75
1 0 0.75
0.75 0.25 0.75
1 0.25 0.75
0.75 0 1
1 0 1
0.75 0.25 1
1 0.25 1
0.5 0.25 0.75
0.75 0.25 0.75
0.5 0.5 0.75
0.75 0.5 0.75
0.5 0.25 1
0.75 0.25 1
0.5 0.5 1
0.75 0.5 1
0.75 0.25 0.75
1 0.25 0.75
0.75 0.5 0.75
1 0.5 0.75
0.75 0.25 1
1 0.25 1
0.75 0.5 1
1 0.5 1
0 0.5 0.5
0.25 0.5 0.5
0 0.75 0.5
0.25 0.75 0.5
0 0.5 0.75
0.25 0.5 0.75
0 0.75 0.75
0.25 0.75 0.75
0.25 0.5 0.5
0.5 0.5 0.5
0.25 0.75 0.5
0.5 0.75 0.5
0.25 0.5 0.75
0.5 0.5 0.75
0.25 0.75 0.75
0.5 0.75 0.75
0 0.75 0.5
0.25 0.75 0.5
0 1 0.5
0.25 1 0.5
0 0.75 0.75
0.25 0.75 0.75
0 1 0.75
0.25 1 0.75
0.25 0.75 0.5
0.5 0.75 0.5
0.25 1 0.5
0.5 1 0.5
0.25 0.75 0.75
0.5 0.75 0.75
0.25 1 0.75
0.5 1 0.75
0 0.5 0.75
0.25 0.5 0.75
0 0.75 0.75
0.25 0.75 0.75
0 0.5 1
0.25 0.5 1
0 0.75 1
0.25 0.75 1
0.25 0.5 0.75
0.5 0.5 0.75
0.25 0.75 0.75
0.5 0.75 0.75
0.25 0.5 1
0.5 0.5 1
0.25 0.75 1
0.5 0.75 1
0 0.75 0.75
0.25 0.75 0.75
0 1 0.75
0.25 1 0.75
0 0.75 1
0.25 0.75 1
0 1 1
0.25 1 1
0.25 0.75 0.75
0.5 0.75 0.75
0.25 1 0.75
0.5 1 0.75
0.25 0.75 1
0.5 0.75 1
0.25 1 1
0.5 1 1
0.5 0.5 0.5
0.75 0.5 0.5
0.5 0.75 0.5
0.75 0.75 0.5
0.5 0.5 0.75
0.75 0.5 0.75
0.5 0.75 0.75
0.75 0.75 0.75
0.75 0.5 0.5
1 0.5 0.5
0.75 0.75 0.5
1 0.75 0.5
0.75 0.5 0.75
1 0.5 0.75
0.75 0.75 0.75
1 0.75 0.75
0.5 0.75 0.5
0.75 0.75 0.5
0.5 1 0.5
0.75 1 0.5
0.5 0.75 0.75
0.75 0.75 0.75
0.5 1 0.75
0.75 1 0.75
0.75 0.75 0.5
1 0.75 0.5
0.75 1 0.5
1 1 0.5
0.75 0.75 0.75
1 0.75 0.75
0.75 1 0.75
1 1 0.75
0.5 0.5 0.75
0.75 0.5 0.75
0.5 0.75 0.75
0.75 0.75 0.75
0.5 0.5 1
0.75 0.5 1
0.5 0.75 1
0.75 0.75 1
0.75 0.5 0.75
1 0.5 0.75
0.75 0.75 0.75
1 0.75 0.75
0.75 0.5 1
1 0.5 1
0.75 0.75 1
1 0.75 1
0.5 0.75 0.75
0.75 0.75 0.75
0.5 1 0.75
0.75 1 0.75
0.5 0.75 1
0.75 0.75 1
0.5 1 1
0.75 1 1
0.75 0.75 0.75
1 0.75 0.75
0.75 1 0.75
1 1 0.75
0.75 0.75 1
1 0.75 1
0.75 1 1
1 1 1

CELLS 64 576
8	0	1	3	2	4	5	7	6
8	8	9	11	10	12	13	15	14
8	16	17	19	18	20	21	23	22
8	24	25	27	26	28	29	31	30
8	32	33	35	34	36	37	39	38
8	40	41	43	42	44	45	47	46
8	48	49	51	50	52	53	55	54
8	56	57	59	58	60	61	63	62
8	64	65	67	66	68	69	71	70
8	72	73	75	74	76	77	79	78
8	80	81	83	82	84	85	87	86
8	88	89	91	90	92	93	95	94
8	96	97	99	98	100	101	103	102
8	104	105	107	106	108	109	111	110
8	112	113	115	114	116	117	119	118
8	120	121	123	122	124	125	127	126
8	128	129	131	130	132	133	135	134
8	136	137	139	138	140	141	143	142
8	144	145	147	146	148	149	151	150
8	152	153	155	154	156	157	159	158
8	160	161	163	162	164	165	167	166
8	168	169	171	170	172	173	175	174
8	176	177	179	178	180	181	183	182
8	184	185	187	186	188	189	191	190
8	192	193	195	194	196	197	199	198
8	200	201	203	202	204	205	207	206
8	208	209	211	210	212	213	215	214
8	216	217	219	218	220	221	223	222
8	224	225	227	226	228	229	231	230
8	232	233	235	234	236	237	239	238
8	240	241	243	242	244	245	247	246
8	248	249	251	250	252	253	255	254
8	256	257	259	258	260	261	263	262
8	264	265	267	266	268	269	271	270
8	272	273	275	274	276	277	279	278
8	280	281	283	282	284	285	287	286
8	288	289	291	290	292	293	295	294
8	296	297	299	298	300	301	303	302
8	304	305	307	306	308	309	311	310
8	312	313	315	314	316	317	319	318
8	320	321	323	322	324	325	327	326
8	328	329	331	330	332	333	335	334
8	336	337	339	338	340	341	343	342
8	344	345	347	346	348	349	351	350
8	352	353	355	354	356	357	359	358
8	360	361	363	362	364	365	367	366
8	368	369	371	370	372	373	375	374
8	376	377	379	378	380	381	383	382
8	384	385	387	386	388	389	391	390
8	392	393	395	394	396	397	399	398
8	400	401	403	402	404	405	407	406
8	408	409	411	410	412	413	415	414
8	416	417	419	418	420	421	423	422
8	424	425	427	426	428	429	431	430
8	432	433	435	434	436	437	439	438
8	440	441	443	442	444	445	447	446
8	448	449	451	450	452	453	455	454
8	456	457	459	458	460	461	463	462
8	464	465	467	466	468	469	471	470
8	472	473	475	474	476	477	479	478
8	480	481	483	482	484	485	487	486
8	488	489	491	490	492	493	495	494
8	496	497	499	498	500	501	503	502
8	504	505	507	506	508	509	511	510

CELL_TYPES 64
 12 12 12 12 12 12 12 12 12 12 12 12 12 12 12 12 12 12 12 12 12 12 12 12 12 12 12 12 12 12 12 12 12 12 12 12 12 12 12 12 12 12 12 12 12 12 12 12 12 12 12 12 12 12 12 12 12 12 12 12 12 12 12 12
POINT_DATA 512
VECTORS velocity double
0 0 0
0.0131765 0 0
0 -0.00658823 0
0.209489 -0.105524 0
0 0 -0.00658818
0.209488 0 -0.105524
0 -0.103964 -0.103964
3.77446 -1.88723 -1.88723
0.0131765 0 0
0.0176012 0 0
0.209489 -0.105628 0
0.40908 -0.00612243 0
0.209488 0 -0.105628
0.40908 0 -0.00612239
3.77446 -1.88753 -1.88753
7.57654 -0.103564 -0.103564
0 -0.00658823 0
0.209396 -0.105524 0
0 -0.00880059 0
0.0119304 -0.212779 0
0 -0.103964 -0.103768
3.77357 -1.88723 -1.88604
0 -0.196302 -0.00580799
0.206186 -3.78827 -0.102622
0.209396 -0.105628 0
0.409825 -0.00612243 0
0.0119304 -0.214221 0
0.0244138 -0.0146818 0
3.77357 -1.88753 -1.88635
7.57968 -0.103564 -0.103495
0.206186 -3.79409 -0.102625
0.428381 -0.222744 -0.00586291
0 0 -0.00658818
0.209396 0 -0.105524
0 -0.103768 -0.103964
3.77357 -1.88604 -1.88723
0 0 -0.00880058
0.0119303 0 -0.212779
0 -0.00580806 -0.196302
0.206186 -0.102622 -3.78827
0.209396 0 -0.105628
0.409825 0 -0.00612239
3.77357 -1.88635 -1.88753
7.57968 -0.103495 -0.103564
0.0119303 0 -0.214221
0.0244138 0 -0.0146817
0.206186 -0.102625 -3.79409
0.428381 -0.0058629 -0.222744
0 -0.103768 -0.103768
3.7727 -1.88604 -1.88604
0 -0.195603 -0.00580799
0.20612 -3.78559 -0.102622
0 -0.00580806 -0.195603
0.20612 -0.102622 -3.78559
0 -0.00973212 -0.00973203
0.0117259 -0.205637 -0.205637
3.7727 -1.88635 -1.88635
7.58236 -0.103495 -0.103495
0.20612 -3.79118 -0.102625
0.4284 -0.222713 -0.00586291
0.20612 -0.102625 -3.79118
0.4284 -0.0058629 -0.222713
0.0117259 -0.205687 -0.205687
0.0253216 -0.0126607 -0.0126608
0.0176012 0 0
0.0131764 0 0
0.40908 0.00612231 0
0.209488 0.105627 0
0.40908 0 0.00612235
0.209489 0 0.105628
7.57654 0.103565 0.103564
3.77446 1.88753 1.88753
0.0131764 0 0
0 0 0
0.209488 0.105524 0
0 0.00658821 0
0.209489 0 0.105524
0 0 0.00658825
3.77446 1.88723 1.88723
0 0.103964 0.103964
0.409825 0.00612231 0
0.209396 0.105627 0
0.0244138 0.0146816 0
0.0119304 0.214221 0
7.57968 0.103565 0.103495
3.77357 1.88753 1.88635
0.428381 0.222744 0.00586299
0.206186 3.79409 0.102625
0.209396 0.105524 0
0 0.00658821 0
0.0119304 0.212779 0
0 0.00880056 0
3.77357 1.88723 1.88604
0 0.103964 0.103768
0.206186 3.78827 0.102622
0 0.196301 0.005808
0.409825 0 0.00612235
0.209396 0 0.105628
7.57968 0.103495 0.103564
3.77357 1.88635 1.88753
0.0244138 0 0.0146817
0.0119304 0 0.214221
0.428381 0.005863 0.222744
0.206186 0.102625 3.79409
0.209396 0 0.105524
0 0 0.00658825
3.77357 1.88604 1.88723
0 0.103768 0.103964
0.0119304 0 0.212779
0 0 0.00880058
0.206186 0.102622 3.78827
0 0.00580794 0.196302
7.58236 0.103495 0.103495
3.7727 1.88635 1.88635
0.4284 0.222713 0.00586299
0.20612 3.79118 0.102625
0.4284 0.005863 0.222713
0.20612 0.102625 3.79118
0.0253216 0.0126609 0.0126608
0.0117259 0.205687 0.205687
3.7727 1.88604 1.88604
0 0.103768 0.103768
0.20612 3.78559 0.102622
0 0.195603 0.005808
0.20612 0.102622 3.78559
0 0.00580794 0.195603
0.0117259 0.205637 0.205637
0 0.00973194 0.00973203
0 -0.00880059 0
-0.0119304 -0.212779 0
0 -0.00658823 0
-0.209396 -0.105524 0
0 -0.196302 0.00580799
-0.206186 -3.78827 0.102622
0 -0.103964 0.103768
-3.77357 -1.88723 1.88604
-0.0119304 -0.214221 0
-0.0244138 -0.0146818 0
-0.209396 -0.105628 0
-0.409825 -0.00612243 0
-0.206186 -3.79409 0.102625
-0.428381 -0.222744 0.00586291
-3.77357 -1.88753 1.88635
-7.57968 -0.103564 0.103495
0 -0.00658823 0
-0.209489 -0.105524 0
0 0 0
-0.0131765 0 0
0 -0.103964 0.103964
-3.77446 -1.88723 1.88723
0 0 0.00658818
-0.209488 0 0.105524
-0.209489 -0.105628 0
-0.40908 -0.00612243 0
-0.0131765 0 0
-0.0176012 0 0
-3.77446 -1.88753 1.88753
-7.57654 -0.103564 0.103564
-0.209488 0 0.105628
-0.40908 0 0.00612239
0 -0.195603 0.00580799
-0.20612 -3.78559 0.102622
0 -0.103768 0.103768
-3.7727 -1.88604 1.88604
0 -0.00973212 0.00973203
-0.0117259 -0.205637 0.205637
0 -0.00580806 0.195603
-0.20612 -0.102622 3.78559
-0.20612 -3.79118 0.102625
-0.4284 -0.222713 0.00586291
-3.7727 -1.88635 1.88635
-7.58236 -0.103495 0.103495
-0.0117259 -0.205687 0.205687
-0.0253216 -0.0126607 0.0126608
-0.20612 -0.102625 3.79118
-0.4284 -0.0058629 0.222713
0 -0.103768 0.103964
-3.77357 -1.88604 1.88723
0 0 0.00658818
-0.209396 0 0.105524
0 -0.00580806 0.196302
-0.206186 -0.102622 3.78827
0 0 0.00880058
-0.0119303 0 0.212779
-3.77357 -1.88635 1.88753
-7.57968 -0.103495 0.103564
-0.209396 0 0.105628
-0.409825 0 0.00612239
-0.206186 -0.102625 3.79409
-0.428381 -0.0058629 0.222744
-0.0119303 0 0.214221
-0.0244138 0 0.0146817
-0.0244138 0.0146816 0
-0.0119304 0.214221 0
-0.409825 0.00612231 0
-0.209396 0.105627 0
-0.428381 0.222744 -0.00586299
-0.206186 3.79409 -0.102625
-7.57968 0.103565 -0.103495
-3.77357 1.88753 -1.88635
-0.0119304 0.212779 0
0 0.00880056 0
-0.209396 0.105524 0
0 0.00658821 0
-0.206186 3.78827 -0.102622
0 0.196301 -0.005808
-3.77357 1.88723 -1.88604
0 0.103964 -0.103768
-0.40908 0.00612231 0
-0.209488 0.105627 0
-0.0176012 0 0
-0.0131764 0 0
-7.57654 0.103565 -0.103564
-3.77446 1.88753 -1.88753
-0.40908 0 -0.00612235
-0.209489 0 -0.105628
-0.209488 0.105524 0
0 0.00658821 0
-0.0131764 0 0
0 0 0
-3.77446 1.88723 -1.88723
0 0.103964 -0.103964
-0.209489 0 -0.105524
0 0 -0.00658825
-0.4284 0.222713 -0.00586299
-0.20612 3.79118 -0.102625
-7.58236 0.103495 -0.103495
-3.7727 1.88635 -1.88635
-0.0253216 0.0126609 -0.0126608
-0.0117259 0.205687 -0.205687
-0.4284 0.005863 -0.222713
-0.20612 0.102625 -3.79118
-0.20612 3.78559 -0.102622
0 0.195603 -0.005808
-3.7727 1.88604 -1.88604
0 0.103768 -0.103768
-0.0117259 0.205637 -0.205637
0 0.00973194 -0.00973203
-0.20612 0.102622 -3.78559
0 0.00580794 -0.195603
-7.57968 0.103495 -0.103564
-3.77357 1.88635 -1.88753
-0.409825 0 -0.00612235
-0.209396 0 -0.105628
-0.428381 0.005863 -0.222744
-0.206186 0.102625 -3.79409
-0.0244138 0 -0.0146817
-0.0119304 0 -0.214221
-3.77357 1.88604 -1.88723
0 0.103768 -0.103964
-0.209396 0 -0.105524
0 0 -0.00658825
-0.206186 0.102622 -3.78827
0 0.00580794 -0.196302
-0.0119304 0 -0.212779
0 0 -0.00880058
0 0 -0.00880058
-0.0119304 0 -0.212779
0 0.00580794 -0.196302
-0.206186 0.102622 -3.78827
0 0 -0.00658825
-0.209396 0 -0.105524
0 0.103768 -0.103964
-3.77357 1.88604 -1.88723
-0.0119304 0 -0.214221
-0.0244138 0 -0.0146817
-0.206186 0.102625 -3.79409
-0.428381 0.005863 -0.222744
-0.209396 0 -0.105628
-0.409825 0 -0.00612235
-3.77357 1.88635 -1.88753
-7.57968 0.103495 -0.103564
0 0.00580794 -0.195603
-0.20612 0.102622 -3.78559
0 0.00973194 -0.00973203
-0.0117259 0.205637 -0.205637
0 0.103768 -0.103768
-3.7727 1.88604 -1.88604
0 0.195603 -0.005808
-0.20612 3.78559 -0.102622
-0.20612 0.102625 -3.79118
-0.4284 0.005863 -0.222713
-0.0117259 0.205687 -0.205687
-0.0253216 0.0126609 -0.0126608
-3.7727 1.88635 -1.88635
-7.58236 0.103495 -0.103495
-0.20612 3.79118 -0.102625
-0.4284 0.222713 -0.00586299
0 0 -0.00658825
-0.209489 0 -0.105524
0 0.103964 -0.103964
-3.77446 1.88723 -1.88723
0 0 0
-0.0131764 0 0
0 0.00658821 0
-0.209488 0.105524 0
-0.209489 0 -0.105628
-0.40908 0 -0.00612235
-3.77446 1.88753 -1.88753
-7.57654 0.103565 -0.103564
-0.0131764 0 0
-0.0176012 0 0
-0.209488 0.105627 0
-0.40908 0.00612231 0
0 0.103964 -0.103768
-3.77357 1.88723 -1.88604
0 0.196301 -0.005808
-0.206186 3.78827 -0.102622
0 0.00658821 0
-0.209396 0.105524 0
0 0.00880056 0
-0.0119304 0.212779 0
-3.77357 1.88753 -1.88635
-7.57968 0.103565 -0.103495
-0.206186 3.79409 -0.102625
-0.428381 0.222744 -0.00586299
-0.209396 0.105627 0
-0.409825 0.00612231 0
-0.0119304 0.214221 0
-0.0244138 0.0146816 0
-0.0244138 0 0.0146817
-0.0119303 0 0.214221
-0.428381 -0.0058629 0.222744
-0.206186 -0.102625 3.79409
-0.409825 0 0.00612239
-0.209396 0 0.105628
-7.57968 -0.103495 0.103564
-3.77357 -1.88635 1.88753
-0.0119303 0 0.212779
0 0 0.00880058
-0.206186 -0.102622 3.78827
0 -0.00580806 0.196302
-0.209396 0 0.105524
0 0 0.00658818
-3.77357 -1.88604 1.88723
0 -0.103768 0.103964
-0.4284 -0.0058629 0.222713
-0.20612 -0.102625 3.79118
-0.0253216 -0.0126607 0.0126608
-0.0117259 -0.205687 0.205687
-7.58236 -0.103495 0.103495
-3.7727 -1.88635 1.88635
-0.4284 -0.222713 0.00586291
-0.20612 -3.79118 0.102625
-0.20612 -0.102622 3.78559
0 -0.00580806 0.195603
-0.0117259 -0.205637 0.205637
0 -0.00973212 0.00973203
-3.7727 -1.88604 1.88604
0 -0.103768 0.103768
-0.20612 -3.78559 0.102622
0 -0.195603 0.00580799
-0.40908 0 0.00612239
-0.209488 0 0.105628
-7.57654 -0.103564 0.103564
-3.77446 -1.88753 1.88753
-0.0176012 0 0
-0.0131765 0 0
-0.40908 -0.00612243 0
-0.209489 -0.105628 0
-0.209488 0 0.105524
0 0 0.00658818
-3.77446 -1.88723 1.88723
0 -0.103964 0.103964
-0.0131765 0 0
0 0 0
-0.209489 -0.105524 0
0 -0.00658823 0
-7.57968 -0.103564 0.103495
-3.77357 -1.88753 1.88635
-0.428381 -0.222744 0.00586291
-0.206186 -3.79409 0.102625
-0.409825 -0.00612243 0
-0.209396 -0.105628 0
-0.0244138 -0.0146818 0
-0.0119304 -0.214221 0
-3.77357 -1.88723 1.88604
0 -0.103964 0.103768
-0.206186 -3.78827 0.102622
0 -0.196302 0.00580799
-0.209396 -0.105524 0
0 -0.00658823 0
-0.0119304 -0.212779 0
0 -0.00880059 0
0 0.00973194 0.00973203
0.0117259 0.205637 0.205637
0 0.00580794 0.195603
0.20612 0.102622 3.78559
0 0.195603 0.005808
0.20612 3.78559 0.102622
0 0.103768 0.103768
3.7727 1.88604 1.88604
0.0117259 0.205687 0.205687
0.0253216 0.0126609 0.0126608
0.20612 0.102625 3.79118
0.4284 0.005863 0.222713
0.20612 3.79118 0.102625
0.4284 0.222713 0.00586299
3.7727 1.88635 1.88635
7.58236 0.103495 0.103495
0 0.00580794 0.196302
0.206186 0.102622 3.78827
0 0 0.00880058
0.0119304 0 0.212779
0 0.103768 0.103964
3.77357 1.88604 1.88723
0 0 0.00658825
0.209396 0 0.105524
0.206186 0.102625 3.79409
0.428381 0.005863 0.222744
0.0119304 0 0.214221
0.0244138 0 0.0146817
3.77357 1.88635 1.88753
7.57968 0.103495 0.103564
0.209396 0 0.105628
0.409825 0 0.00612235
0 0.196301 0.005808
0.206186 3.78827 0.102622
0 0.103964 0.103768
3.77357 1.88723 1.88604
0 0.00880056 0
0.0119304 0.212779 0
0 0.00658821 0
0.209396 0.105524 0
0.206186 3.79409 0.102625
0.428381 0.222744 0.00586299
3.77357 1.88753 1.88635
7.57968 0.103565 0.103495
0.0119304 0.214221 0
0.0244138 0.0146816 0
0.209396 0.105627 0
0.409825 0.00612231 0
0 0.103964 0.103964
3.77446 1.88723 1.88723
0 0 0.00658825
0.209489 0 0.105524
0 0.00658821 0
0.209488 0.105524 0
0 0 0
0.0131764 0 0
3.77446 1.88753 1.88753
7.57654 0.103565 0.103564
0.209489 0 0.105628
0.40908 0 0.00612235
0.209488 0.105627 0
0.40908 0.00612231 0
0.0131764 0 0
0.0176012 0 0
0.0253216 -0.0126607 -0.0126608
0.0117259 -0.205687 -0.205687
0.4284 -0.0058629 -0.222713
0.20612 -0.102625 -3.79118
0.4284 -0.222713 -0.00586291
0.20612 -3.79118 -0.102625
7.58236 -0.103495 -0.103495
3.7727 -1.88635 -1.88635
0.0117259 -0.205637 -0.205637
0 -0.00973212 -0.00973203
0.20612 -0.102622 -3.78559
0 -0.00580806 -0.195603
0.20612 -3.78559 -0.102622
0 -0.195603 -0.00580799
3.7727 -1.88604 -1.88604
0 -0.103768 -0.103768
0.428381 -0.0058629 -0.222744
0.206186 -0.102625 -3.79409
0.0244138 0 -0.0146817
0.0119303 0 -0.214221
7.57968 -0.103495 -0.103564
3.77357 -1.88635 -1.88753
0.409825 0 -0.00612239
0.209396 0 -0.105628
0.206186 -0.102622 -3.78827
0 -0.00580806 -0.196302
0.0119303 0 -0.212779
0 0 -0.00880058
3.77357 -1.88604 -1.88723
0 -0.103768 -0.103964
0.209396 0 -0.105524
0 0 -0.00658818
0.428381 -0.222744 -0.00586291
0.206186 -3.79409 -0.102625
7.57968 -0.103564 -0.103495
3.77357 -1.88753 -1.88635
0.0244138 -0.0146818 0
0.0119304 -0.214221 0
0.409825 -0.00612243 0
0.209396 -0.105628 0
0.206186 -3.78827 -0.102622
0 -0.196302 -0.00580799
3.77357 -1.88723 -1.88604
0 -0.103964 -0.103768
0.0119304 -0.212779 0
0 -0.00880059 0
0.209396 -0.105524 0
0 -0.00658823 0
7.57654 -0.103564 -0.103564
3.77446 -1.88753 -1.88753
0.40908 0 -0.00612239
0.209488 0 -0.105628
0.40908 -0.00612243 0
0.209489 -0.105628 0
0.0176012 0 0
0.0131765 0 0
3.77446 -1.88723 -1.88723
0 -0.103964 -0.103964
0.209488 0 -0.105524
0 0 -0.00658818
0.209489 -0.105524 0
0 -0.00658823 0
0.0131765 0 0
0 0 0
SCALARS pressure double 1
LOOKUP_TABLE default
0.000251858 -0.807954 0.410155 -0.246245 0.421971 0.304051 0.518316 0.401113 -1.00256 -0.256182 -0.344864 -0.472828 0.222135 0.317221 0.531656 -0.715396 0.507633 -0.274309 0.136705 0.0530085 0.644754 0.330113 0.432533 0.653986 -0.382171 -0.51273 0.0634834 -0.0337142 0.462148 -0.854896 0.781906 -0.0379179 0.519815 0.293202 0.645266 0.354102 0.153921 0.855236 0.444712 1.2215 0.202565 0.302032 0.486863 -0.820458 0.890057 1.11802 1.36664 0.776845 0.790165 0.279044 0.461609 0.649112 0.47342 1.19941 0.0681969 0.111818 0.413286 -0.968844 0.781224 -0.0473372 1.34822 0.742712 0.131746 0.0172186 0.290622 1.02727 0.497542 0.3626 1.28759 0.9296 1.86713 0.294917 0.831946 0.000251864 0.263462 -0.409794 0.813758 -0.397979 0.401113 -0.501098 0.53672 0.399386 0.0342265 -0.0631158 1.97271 0.340079 0.0619057 -0.76469 0.291022 -0.507282 -0.0526515 -0.136697 0.448483 -0.628042 -0.637277 -0.432176 1.35148 0.984122 2.00715 0.364793 1.18596 0.763458 0.876669 -0.179954 0.858533 -0.4951 0.472471 -0.62753 0.749576 -0.119481 -0.0697641 -0.419998 2.12058 0.413286 0.0720519 -0.763487 0.862101 -0.196488 0.0172186 -0.107032 0.523183 -0.772949 -0.631896 -0.461242 -0.0815983 -0.44943 -0.0878298 -0.0676845 -0.136705 -0.0530085 -0.507633 0.274309 -0.432533 -0.653986 -0.644754 -0.330113 -0.0634834 0.0337142 0.382171 0.51273 -0.781906 0.0379179 -0.462148 0.854896 -0.410155 0.246245 -0.000251868 0.807954 -0.518316 -0.401113 -0.421971 -0.304051 0.344864 0.472828 1.00256 0.256182 -0.531656 0.715396 -0.222135 -0.317221 -0.461609 -0.649112 -0.790165 -0.279044 -0.0681969 -0.111818 -0.47342 -1.19941 -0.781224 0.0473372 -0.413286 0.968844 -0.131746 -0.0172186 -1.34822 -0.742712 -0.645266 -0.354102 -0.519815 -0.293202 -0.444712 -1.2215 -0.153921 -0.855236 -0.486863 0.820458 -0.202565 -0.302032 -1.36664 -0.776845 -0.890057 -1.11802 -0.0342265 0.0631158 -0.53672 -0.399386 -0.0619057 0.76469 -1.97271 -0.340079 0.0526515 0.136697 -0.291022 0.507282 0.637277 0.432176 -0.448483 0.628042 -0.497542 -0.3626 -0.290622 -1.02727 -1.86713 -0.294917 -1.28759 -0.9296 -0.263462 0.409794 -0.831946 -0.000251881 -0.401113 0.501098 -0.813758 0.397979 -0.0720519 0.763487 -2.12058 -0.413286 -0.0172186 0.107032 -0.862101 0.196488 0.631896 0.461242 -0.523183 0.772949 0.0878298 0.0676845 0.0815983 0.44943 -2.00715 -0.364793 -1.35148 -0.984122 -0.876669 0.179954 -1.18596 -0.763458 -0.472471 0.62753 -0.858533 0.4951 0.0697641 0.419998 -0.749576 0.119481 -0.119481 0.749576 -0.419998 -0.0697641 -0.4951 0.858533 -0.62753 0.472471 0.763458 1.18596 -0.179954 0.876669 0.984122 1.35148 0.364793 2.00715 -0.44943 -0.0815983 -0.0676845 -0.0878298 -0.772949 0.523183 -0.461242 -0.631896 -0.196488 0.862101 -0.107032 0.0172186 0.413286 2.12058 -0.763487 0.0720519 -0.397979 0.813758 -0.501098 0.401113 0.000251889 0.831946 -0.409794 0.263462 0.9296 1.28759 0.294917 1.86713 1.02727 0.290622 0.3626 0.497542 -0.628042 0.448483 -0.432176 -0.637277 -0.507282 0.291022 -0.136697 -0.0526515 0.340079 1.97271 -0.76469 0.0619057 0.399386 0.53672 -0.0631158 0.0342265 1.11802 0.890057 0.776845 1.36664 0.302032 0.202565 -0.820458 0.486863 0.855236 0.153921 1.2215 0.444712 0.293202 0.519815 0.354102 0.645266 0.742712 1.34822 0.0172186 0.131746 -0.968844 0.413286 -0.0473372 0.781224 1.19941 0.47342 0.111818 0.0681969 0.279044 0.790165 0.649112 0.461609 0.317221 0.222135 -0.715396 0.531656 -0.256182 -1.00256 -0.472828 -0.344864 0.304051 0.421971 0.401113 0.518316 -0.807954 0.000251873 -0.246245 0.410155 -0.854896 0.462148 -0.0379179 0.781906 -0.51273 -0.382171 -0.0337142 0.0634834 0.330113 0.644754 0.653986 0.432533 -0.274309 0.507633 0.0530085 0.136705 0.0676845 0.0878298 0.44943 0.0815983 0.461242 0.631896 0.772949 -0.523183 0.107032 -0.0172186 0.196488 -0.862101 0.763487 -0.0720519 -0.413286 -2.12058 0.419998 0.0697641 0.119481 -0.749576 0.62753 -0.472471 0.4951 -0.858533 0.179954 -0.876669 -0.763458 -1.18596 -0.364793 -2.00715 -0.984122 -1.35148 0.432176 0.637277 0.628042 -0.448483 0.136697 0.0526515 0.507282 -0.291022 0.76469 -0.0619057 -0.340079 -1.97271 0.0631158 -0.0342265 -0.399386 -0.53672 0.501098 -0.401113 0.397979 -0.813758 0.409794 -0.263462 -0.000251902 -0.831946 -0.294917 -1.86713 -0.9296 -1.28759 -0.3626 -0.497542 -1.02727 -0.290622 -0.0172186 -0.131746 -0.742712 -1.34822 0.0473372 -0.781224 0.968844 -0.413286 -0.111818 -0.0681969 -1.19941 -0.47342 -0.649112 -0.461609 -0.279044 -0.790165 -0.776845 -1.36664 -1.11802 -0.890057 0.820458 -0.486863 -0.302032 -0.202565 -1.2215 -0.444712 -0.855236 -0.153921 -0.354102 -0.645266 -0.293202 -0.519815 0.0379179 -0.781906 0.854896 -0.462148 0.0337142 -0.0634834 0.51273 0.382171 -0.653986 -0.432533 -0.330113 -0.644754 -0.0530085 -0.136705 0.274309 -0.507633 0.715396 -0.531656 -0.317221 -0.222135 0.472828 0.344864 0.256182 1.00256 -0.401113 -0.518316 -0.304051 -0.421971 0.246245 -0.410155 0.807954 -0.00025187 
SCALARS global_div_diff double 1
LOOKUP_TABLE default