# vtk DataFile Version 3.0
#This file was generated by the deal.II library on 2017/9/21 at 11:06:54
ASCII
DATASET UNSTRUCTURED_GRID

POINTS 8 double
0 0 0
1 0 0
0 1 0
1 1 0
0 0 1
1 0 1
0 1 1
1 1 1

CELLS 1 9
8	0	1	3	2	4	5	7	6

CELL_TYPES 1
 12
POINT_DATA 8
VECTORS velocity double
0 0 0
0 0 0
0 0 0
0 0 0
0 0 0
0 0 0
0 0 0
0 0 0
SCALARS pressure double 1
LOOKUP_TABLE default
0.49868 0.49868 -0.49868 -0.49868 0.49868 0.49868 -0.49868 -0.49868 
SCALARS global_div_diff double 1
LOOKUP_TABLE default
7.93241e-16 7.93241e-16 7.93241e-16 7.93241e-16 7.93241e-16 7.93241e-16 7.93241e-16 7.93241e-16 
SCALARS cell_div_diff double 1
LOOKUP_TABLE default
1.0487 1.0487 1.0487 1.0487 1.0487 1.0487 1.0487 1.0487 
SCALARS global_l2_diff double 1
LOOKUP_TABLE default
2.26026 2.26026 2.26026 2.26026 2.26026 2.26026 2.26026 2.26026 
SCALARS global_h1_diff double 1
LOOKUP_TABLE default
22.877 22.877 22.877 22.877 22.877 22.877 22.877 22.877 
