# vtk DataFile Version 3.0
#This file was generated by the deal.II library on 2017/9/21 at 11:25:14
ASCII
DATASET UNSTRUCTURED_GRID

POINTS 64 double
0 0 0
0.25 0 0
0 0.25 0
0.25 0.25 0
0.25 0 0
0.5 0 0
0.25 0.25 0
0.5 0.25 0
0 0.25 0
0.25 0.25 0
0 0.5 0
0.25 0.5 0
0.25 0.25 0
0.5 0.25 0
0.25 0.5 0
0.5 0.5 0
0.5 0 0
0.75 0 0
0.5 0.25 0
0.75 0.25 0
0.75 0 0
1 0 0
0.75 0.25 0
1 0.25 0
0.5 0.25 0
0.75 0.25 0
0.5 0.5 0
0.75 0.5 0
0.75 0.25 0
1 0.25 0
0.75 0.5 0
1 0.5 0
0 0.5 0
0.25 0.5 0
0 0.75 0
0.25 0.75 0
0.25 0.5 0
0.5 0.5 0
0.25 0.75 0
0.5 0.75 0
0 0.75 0
0.25 0.75 0
0 1 0
0.25 1 0
0.25 0.75 0
0.5 0.75 0
0.25 1 0
0.5 1 0
0.5 0.5 0
0.75 0.5 0
0.5 0.75 0
0.75 0.75 0
0.75 0.5 0
1 0.5 0
0.75 0.75 0
1 0.75 0
0.5 0.75 0
0.75 0.75 0
0.5 1 0
0.75 1 0
0.75 0.75 0
1 0.75 0
0.75 1 0
1 1 0

CELLS 16 80
4	0	1	3	2
4	4	5	7	6
4	8	9	11	10
4	12	13	15	14
4	16	17	19	18
4	20	21	23	22
4	24	25	27	26
4	28	29	31	30
4	32	33	35	34
4	36	37	39	38
4	40	41	43	42
4	44	45	47	46
4	48	49	51	50
4	52	53	55	54
4	56	57	59	58
4	60	61	63	62

CELL_TYPES 16
 9 9 9 9 9 9 9 9 9 9 9 9 9 9 9 9
POINT_DATA 64
VECTORS velocity double
0 0 0
-0.00154321 0 0
0 0.00154321 0
1.57092 -1.57092 0
-0.00154321 0 0
-0.00310283 0 0
1.57092 -1.57092 0
3.14158 0.00154305 0
0 0.00154321 0
1.57092 -1.57092 0
0 0.00310283 0
-0.00154305 -3.14158 0
1.57092 -1.57092 0
3.14158 0.00154305 0
-0.00154305 -3.14158 0
-0.00311953 0.00311952 0
-0.00310283 0 0
-0.00154321 0 0
3.14158 -0.00154305 0
1.57092 1.57092 0
-0.00154321 0 0
0 0 0
1.57092 1.57092 0
0 -0.00154321 0
3.14158 -0.00154305 0
1.57092 1.57092 0
-0.00311953 -0.00311952 0
-0.00154305 3.14158 0
1.57092 1.57092 0
0 -0.00154321 0
-0.00154305 3.14158 0
0 -0.00310283 0
0 0.00310283 0
0.00154305 -3.14158 0
0 0.00154321 0
-1.57092 -1.57092 0
0.00154305 -3.14158 0
0.00311952 0.00311952 0
-1.57092 -1.57092 0
-3.14158 0.00154305 0
0 0.00154321 0
-1.57092 -1.57092 0
0 0 0
0.00154321 0 0
-1.57092 -1.57092 0
-3.14158 0.00154305 0
0.00154321 0 0
0.00310283 0 0
0.00311952 -0.00311952 0
0.00154305 3.14158 0
-3.14158 -0.00154305 0
-1.57092 1.57092 0
0.00154305 3.14158 0
0 -0.00310283 0
-1.57092 1.57092 0
0 -0.00154321 0
-3.14158 -0.00154305 0
-1.57092 1.57092 0
0.00310283 0 0
0.00154321 0 0
-1.57092 1.57092 0
0 -0.00154321 0
0.00154321 0 0
0 0 0
SCALARS pressure double 1
LOOKUP_TABLE default
-7.68391e-05 0.00442049 0.702388 0.499789 0.00436764 0.00344902 0.499136 0.0124924 0.702332 0.500442 0.996129 0.694207 0.499789 0.0128625 0.693946 -7.68648e-05 -0.00344902 -0.00436764 -0.0124924 -0.499136 -0.00442049 7.68332e-05 -0.499789 -0.702388 -0.0128625 -0.499789 7.68649e-05 -0.693946 -0.500442 -0.702332 -0.694207 -0.996129 1.00303 0.719301 0.711176 0.498982 0.719779 -7.68646e-05 0.499789 -0.0129712 0.711337 0.499789 -7.68332e-05 -0.0045292 0.500595 -0.0126011 -0.00447625 -0.00344893 7.68649e-05 -0.719779 0.0129712 -0.499789 -0.719301 -1.00303 -0.498982 -0.711176 0.0126011 -0.500595 0.00344893 0.00447625 -0.499789 -0.711337 0.0045292 7.68379e-05 
SCALARS global_div_diff double 1
LOOKUP_TABLE default
2.90636e-10 2.90636e-10 2.90636e-10 2.90636e-10 6.3852e-10 6.3852e-10 6.3852e-10 6.3852e-10 7.93208e-10 7.93208e-10 7.93208e-10 7.93208e-10 6.91082e-10 6.91082e-10 6.91082e-10 6.91082e-10 6.37445e-10 6.37445e-10 6.37445e-10 6.37445e-10 2.87583e-10 2.87583e-10 2.87583e-10 2.87583e-10 6.92727e-10 6.92727e-10 6.92727e-10 6.92727e-10 7.94588e-10 7.94588e-10 7.94588e-10 7.94588e-10 7.69481e-10 7.69481e-10 7.69481e-10 7.69481e-10 6.91442e-10 6.91442e-10 6.91442e-10 6.91442e-10 2.76687e-10 2.76687e-10 2.76687e-10 2.76687e-10 6.04559e-10 6.04559e-10 6.04559e-10 6.04559e-10 6.92254e-10 6.92254e-10 6.92254e-10 6.92254e-10 7.67773e-10 7.67773e-10 7.67773e-10 7.67773e-10 6.03869e-10 6.03869e-10 6.03869e-10 6.03869e-10 2.80207e-10 2.80207e-10 2.80207e-10 2.80207e-10 
SCALARS cell_div_diff double 1
LOOKUP_TABLE default
2.90636e-10 2.90636e-10 2.90636e-10 2.90636e-10 6.3852e-10 6.3852e-10 6.3852e-10 6.3852e-10 7.93206e-10 7.93206e-10 7.93206e-10 7.93206e-10 6.91083e-10 6.91083e-10 6.91083e-10 6.91083e-10 6.37446e-10 6.37446e-10 6.37446e-10 6.37446e-10 2.87583e-10 2.87583e-10 2.87583e-10 2.87583e-10 6.92726e-10 6.92726e-10 6.92726e-10 6.92726e-10 7.94588e-10 7.94588e-10 7.94588e-10 7.94588e-10 7.69483e-10 7.69483e-10 7.69483e-10 7.69483e-10 6.91443e-10 6.91443e-10 6.91443e-10 6.91443e-10 2.76687e-10 2.76687e-10 2.76687e-10 2.76687e-10 6.04558e-10 6.04558e-10 6.04558e-10 6.04558e-10 6.92255e-10 6.92255e-10 6.92255e-10 6.92255e-10 7.67774e-10 7.67774e-10 7.67774e-10 7.67774e-10 6.03869e-10 6.03869e-10 6.03869e-10 6.03869e-10 2.80206e-10 2.80206e-10 2.80206e-10 2.80206e-10 
SCALARS global_l2_diff double 1
LOOKUP_TABLE default
0.000352326 0.000352326 0.000352326 0.000352326 0.000844251 0.000844251 0.000844251 0.000844251 0.000844251 0.000844251 0.000844251 0.000844251 0.00113866 0.00113866 0.00113866 0.00113866 0.000844251 0.000844251 0.000844251 0.000844251 0.000352326 0.000352326 0.000352326 0.000352326 0.00113866 0.00113866 0.00113866 0.00113866 0.000844251 0.000844251 0.000844251 0.000844251 0.000844251 0.000844251 0.000844251 0.000844251 0.00113866 0.00113866 0.00113866 0.00113866 0.000352326 0.000352326 0.000352326 0.000352326 0.000844251 0.000844251 0.000844251 0.000844251 0.00113866 0.00113866 0.00113866 0.00113866 0.000844251 0.000844251 0.000844251 0.000844251 0.000844251 0.000844251 0.000844251 0.000844251 0.000352326 0.000352326 0.000352326 0.000352326 
SCALARS global_h1_diff double 1
LOOKUP_TABLE default
0.0148897 0.0148897 0.0148897 0.0148897 0.037014 0.037014 0.037014 0.037014 0.037014 0.037014 0.037014 0.037014 0.0501957 0.0501957 0.0501957 0.0501957 0.037014 0.037014 0.037014 0.037014 0.0148897 0.0148897 0.0148897 0.0148897 0.0501957 0.0501957 0.0501957 0.0501957 0.037014 0.037014 0.037014 0.037014 0.037014 0.037014 0.037014 0.037014 0.0501957 0.0501957 0.0501957 0.0501957 0.0148897 0.0148897 0.0148897 0.0148897 0.037014 0.037014 0.037014 0.037014 0.0501957 0.0501957 0.0501957 0.0501957 0.037014 0.037014 0.037014 0.037014 0.037014 0.037014 0.037014 0.037014 0.0148897 0.0148897 0.0148897 0.0148897 
