# vtk DataFile Version 3.0
#This file was generated by the deal.II library on 2017/9/21 at 11:25:17
ASCII
DATASET UNSTRUCTURED_GRID

POINTS 256 double
0 0 0
0.125 0 0
0 0.125 0
0.125 0.125 0
0.125 0 0
0.25 0 0
0.125 0.125 0
0.25 0.125 0
0 0.125 0
0.125 0.125 0
0 0.25 0
0.125 0.25 0
0.125 0.125 0
0.25 0.125 0
0.125 0.25 0
0.25 0.25 0
0.25 0 0
0.375 0 0
0.25 0.125 0
0.375 0.125 0
0.375 0 0
0.5 0 0
0.375 0.125 0
0.5 0.125 0
0.25 0.125 0
0.375 0.125 0
0.25 0.25 0
0.375 0.25 0
0.375 0.125 0
0.5 0.125 0
0.375 0.25 0
0.5 0.25 0
0 0.25 0
0.125 0.25 0
0 0.375 0
0.125 0.375 0
0.125 0.25 0
0.25 0.25 0
0.125 0.375 0
0.25 0.375 0
0 0.375 0
0.125 0.375 0
0 0.5 0
0.125 0.5 0
0.125 0.375 0
0.25 0.375 0
0.125 0.5 0
0.25 0.5 0
0.25 0.25 0
0.375 0.25 0
0.25 0.375 0
0.375 0.375 0
0.375 0.25 0
0.5 0.25 0
0.375 0.375 0
0.5 0.375 0
0.25 0.375 0
0.375 0.375 0
0.25 0.5 0
0.375 0.5 0
0.375 0.375 0
0.5 0.375 0
0.375 0.5 0
0.5 0.5 0
0.5 0 0
0.625 0 0
0.5 0.125 0
0.625 0.125 0
0.625 0 0
0.75 0 0
0.625 0.125 0
0.75 0.125 0
0.5 0.125 0
0.625 0.125 0
0.5 0.25 0
0.625 0.25 0
0.625 0.125 0
0.75 0.125 0
0.625 0.25 0
0.75 0.25 0
0.75 0 0
0.875 0 0
0.75 0.125 0
0.875 0.125 0
0.875 0 0
1 0 0
0.875 0.125 0
1 0.125 0
0.75 0.125 0
0.875 0.125 0
0.75 0.25 0
0.875 0.25 0
0.875 0.125 0
1 0.125 0
0.875 0.25 0
1 0.25 0
0.5 0.25 0
0.625 0.25 0
0.5 0.375 0
0.625 0.375 0
0.625 0.25 0
0.75 0.25 0
0.625 0.375 0
0.75 0.375 0
0.5 0.375 0
0.625 0.375 0
0.5 0.5 0
0.625 0.5 0
0.625 0.375 0
0.75 0.375 0
0.625 0.5 0
0.75 0.5 0
0.75 0.25 0
0.875 0.25 0
0.75 0.375 0
0.875 0.375 0
0.875 0.25 0
1 0.25 0
0.875 0.375 0
1 0.375 0
0.75 0.375 0
0.875 0.375 0
0.75 0.5 0
0.875 0.5 0
0.875 0.375 0
1 0.375 0
0.875 0.5 0
1 0.5 0
0 0.5 0
0.125 0.5 0
0 0.625 0
0.125 0.625 0
0.125 0.5 0
0.25 0.5 0
0.125 0.625 0
0.25 0.625 0
0 0.625 0
0.125 0.625 0
0 0.75 0
0.125 0.75 0
0.125 0.625 0
0.25 0.625 0
0.125 0.75 0
0.25 0.75 0
0.25 0.5 0
0.375 0.5 0
0.25 0.625 0
0.375 0.625 0
0.375 0.5 0
0.5 0.5 0
0.375 0.625 0
0.5 0.625 0
0.25 0.625 0
0.375 0.625 0
0.25 0.75 0
0.375 0.75 0
0.375 0.625 0
0.5 0.625 0
0.375 0.75 0
0.5 0.75 0
0 0.75 0
0.125 0.75 0
0 0.875 0
0.125 0.875 0
0.125 0.75 0
0.25 0.75 0
0.125 0.875 0
0.25 0.875 0
0 0.875 0
0.125 0.875 0
0 1 0
0.125 1 0
0.125 0.875 0
0.25 0.875 0
0.125 1 0
0.25 1 0
0.25 0.75 0
0.375 0.75 0
0.25 0.875 0
0.375 0.875 0
0.375 0.75 0
0.5 0.75 0
0.375 0.875 0
0.5 0.875 0
0.25 0.875 0
0.375 0.875 0
0.25 1 0
0.375 1 0
0.375 0.875 0
0.5 0.875 0
0.375 1 0
0.5 1 0
0.5 0.5 0
0.625 0.5 0
0.5 0.625 0
0.625 0.625 0
0.625 0.5 0
0.75 0.5 0
0.625 0.625 0
0.75 0.625 0
0.5 0.625 0
0.625 0.625 0
0.5 0.75 0
0.625 0.75 0
0.625 0.625 0
0.75 0.625 0
0.625 0.75 0
0.75 0.75 0
0.75 0.5 0
0.875 0.5 0
0.75 0.625 0
0.875 0.625 0
0.875 0.5 0
1 0.5 0
0.875 0.625 0
1 0.625 0
0.75 0.625 0
0.875 0.625 0
0.75 0.75 0
0.875 0.75 0
0.875 0.625 0
1 0.625 0
0.875 0.75 0
1 0.75 0
0.5 0.75 0
0.625 0.75 0
0.5 0.875 0
0.625 0.875 0
0.625 0.75 0
0.75 0.75 0
0.625 0.875 0
0.75 0.875 0
0.5 0.875 0
0.625 0.875 0
0.5 1 0
0.625 1 0
0.625 0.875 0
0.75 0.875 0
0.625 1 0
0.75 1 0
0.75 0.75 0
0.875 0.75 0
0.75 0.875 0
0.875 0.875 0
0.875 0.75 0
1 0.75 0
0.875 0.875 0
1 0.875 0
0.75 0.875 0
0.875 0.875 0
0.75 1 0
0.875 1 0
0.875 0.875 0
1 0.875 0
0.875 1 0
1 1 0

CELLS 64 320
4	0	1	3	2
4	4	5	7	6
4	8	9	11	10
4	12	13	15	14
4	16	17	19	18
4	20	21	23	22
4	24	25	27	26
4	28	29	31	30
4	32	33	35	34
4	36	37	39	38
4	40	41	43	42
4	44	45	47	46
4	48	49	51	50
4	52	53	55	54
4	56	57	59	58
4	60	61	63	62
4	64	65	67	66
4	68	69	71	70
4	72	73	75	74
4	76	77	79	78
4	80	81	83	82
4	84	85	87	86
4	88	89	91	90
4	92	93	95	94
4	96	97	99	98
4	100	101	103	102
4	104	105	107	106
4	108	109	111	110
4	112	113	115	114
4	116	117	119	118
4	120	121	123	122
4	124	125	127	126
4	128	129	131	130
4	132	133	135	134
4	136	137	139	138
4	140	141	143	142
4	144	145	147	146
4	148	149	151	150
4	152	153	155	154
4	156	157	159	158
4	160	161	163	162
4	164	165	167	166
4	168	169	171	170
4	172	173	175	174
4	176	177	179	178
4	180	181	183	182
4	184	185	187	186
4	188	189	191	190
4	192	193	195	194
4	196	197	199	198
4	200	201	203	202
4	204	205	207	206
4	208	209	211	210
4	212	213	215	214
4	216	217	219	218
4	220	221	223	222
4	224	225	227	226
4	228	229	231	230
4	232	233	235	234
4	236	237	239	238
4	240	241	243	242
4	244	245	247	246
4	248	249	251	250
4	252	253	255	254

CELL_TYPES 64
 9 9 9 9 9 9 9 9 9 9 9 9 9 9 9 9 9 9 9 9 9 9 9 9 9 9 9 9 9 9 9 9 9 9 9 9 9 9 9 9 9 9 9 9 9 9 9 9 9 9 9 9 9 9 9 9 9 9 9 9 9 9 9 9
POINT_DATA 256
VECTORS velocity double
0 0 0
-1.64105e-05 0 0
0 1.64105e-05 0
0.325338 -0.325338 0
-1.64105e-05 0 0
-5.64154e-05 0 0
0.325338 -0.325315 0
1.11076 -0.460081 0
0 1.64105e-05 0
0.325315 -0.325338 0
0 5.64155e-05 0
0.460081 -1.11076 0
0.325315 -0.325315 0
1.11068 -0.460081 0
0.460081 -1.11068 0
1.5708 -1.5708 0
-5.64154e-05 0 0
-9.64357e-05 0 0
1.11076 -0.460081 0
1.89619 -0.325315 0
-9.64357e-05 0 0
-0.000113012 0 0
1.89619 -0.325338 0
2.22152 1.629e-05 0
1.11068 -0.460081 0
1.89605 -0.325315 0
1.5708 -1.5708 0
2.68152 -1.11068 0
1.89605 -0.325338 0
2.22136 1.629e-05 0
2.68152 -1.11076 0
3.14159 5.6416e-05 0
0 5.64155e-05 0
0.460081 -1.11076 0
0 9.64355e-05 0
0.325315 -1.89619 0
0.460081 -1.11068 0
1.5708 -1.5708 0
0.325315 -1.89605 0
1.11068 -2.68152 0
0 9.64355e-05 0
0.325338 -1.89619 0
0 0.000113012 0
-1.629e-05 -2.22152 0
0.325338 -1.89605 0
1.11076 -2.68152 0
-1.629e-05 -2.22136 0
-5.6416e-05 -3.14159 0
1.5708 -1.5708 0
2.68152 -1.11068 0
1.11068 -2.68152 0
1.89605 -1.89605 0
2.68152 -1.11076 0
3.14159 5.6416e-05 0
1.89605 -1.89619 0
2.22136 9.65516e-05 0
1.11076 -2.68152 0
1.89619 -1.89605 0
-5.6416e-05 -3.14159 0
-9.65516e-05 -2.22136 0
1.89619 -1.89619 0
2.22152 9.65516e-05 0
-9.65516e-05 -2.22152 0
-0.000113176 0.000113176 0
-0.000113012 0 0
-9.64357e-05 0 0
2.22152 -1.629e-05 0
1.89619 0.325338 0
-9.64357e-05 0 0
-5.64154e-05 0 0
1.89619 0.325315 0
1.11076 0.460081 0
2.22136 -1.629e-05 0
1.89605 0.325338 0
3.14159 -5.6416e-05 0
2.68152 1.11076 0
1.89605 0.325315 0
1.11068 0.460081 0
2.68152 1.11068 0
1.5708 1.5708 0
-5.64154e-05 0 0
-1.64105e-05 0 0
1.11076 0.460081 0
0.325338 0.325315 0
-1.64105e-05 0 0
0 0 0
0.325338 0.325338 0
0 -1.64105e-05 0
1.11068 0.460081 0
0.325315 0.325315 0
1.5708 1.5708 0
0.460081 1.11068 0
0.325315 0.325338 0
0 -1.64105e-05 0
0.460081 1.11076 0
0 -5.64155e-05 0
3.14159 -5.6416e-05 0
2.68152 1.11076 0
2.22136 -9.65516e-05 0
1.89605 1.89619 0
2.68152 1.11068 0
1.5708 1.5708 0
1.89605 1.89605 0
1.11068 2.68152 0
2.22152 -9.65516e-05 0
1.89619 1.89619 0
-0.000113176 -0.000113176 0
-9.65516e-05 2.22152 0
1.89619 1.89605 0
1.11076 2.68152 0
-9.65516e-05 2.22136 0
-5.6416e-05 3.14159 0
1.5708 1.5708 0
0.460081 1.11068 0
1.11068 2.68152 0
0.325315 1.89605 0
0.460081 1.11076 0
0 -5.64155e-05 0
0.325315 1.89619 0
0 -9.64355e-05 0
1.11076 2.68152 0
0.325338 1.89605 0
-5.6416e-05 3.14159 0
-1.629e-05 2.22136 0
0.325338 1.89619 0
0 -9.64355e-05 0
-1.629e-05 2.22152 0
0 -0.000113012 0
0 0.000113012 0
1.629e-05 -2.22152 0
0 9.64357e-05 0
-0.325338 -1.89619 0
1.629e-05 -2.22136 0
5.6416e-05 -3.14159 0
-0.325338 -1.89605 0
-1.11076 -2.68152 0
0 9.64357e-05 0
-0.325315 -1.89619 0
0 5.64154e-05 0
-0.460081 -1.11076 0
-0.325315 -1.89605 0
-1.11068 -2.68152 0
-0.460081 -1.11068 0
-1.5708 -1.5708 0
5.6416e-05 -3.14159 0
9.65516e-05 -2.22136 0
-1.11076 -2.68152 0
-1.89619 -1.89605 0
9.65516e-05 -2.22152 0
0.000113176 0.000113176 0
-1.89619 -1.89619 0
-2.22152 9.65516e-05 0
-1.11068 -2.68152 0
-1.89605 -1.89605 0
-1.5708 -1.5708 0
-2.68152 -1.11068 0
-1.89605 -1.89619 0
-2.22136 9.65516e-05 0
-2.68152 -1.11076 0
-3.14159 5.6416e-05 0
0 5.64154e-05 0
-0.460081 -1.11076 0
0 1.64105e-05 0
-0.325315 -0.325338 0
-0.460081 -1.11068 0
-1.5708 -1.5708 0
-0.325315 -0.325315 0
-1.11068 -0.460081 0
0 1.64105e-05 0
-0.325338 -0.325338 0
0 0 0
1.64105e-05 0 0
-0.325338 -0.325315 0
-1.11076 -0.460081 0
1.64105e-05 0 0
5.64155e-05 0 0
-1.5708 -1.5708 0
-2.68152 -1.11068 0
-1.11068 -0.460081 0
-1.89605 -0.325315 0
-2.68152 -1.11076 0
-3.14159 5.6416e-05 0
-1.89605 -0.325338 0
-2.22136 1.629e-05 0
-1.11076 -0.460081 0
-1.89619 -0.325315 0
5.64155e-05 0 0
9.64355e-05 0 0
-1.89619 -0.325338 0
-2.22152 1.629e-05 0
9.64355e-05 0 0
0.000113013 0 0
0.000113176 -0.000113176 0
9.65516e-05 2.22152 0
-2.22152 -9.65516e-05 0
-1.89619 1.89619 0
9.65516e-05 2.22136 0
5.6416e-05 3.14159 0
-1.89619 1.89605 0
-1.11076 2.68152 0
-2.22136 -9.65516e-05 0
-1.89605 1.89619 0
-3.14159 -5.6416e-05 0
-2.68152 1.11076 0
-1.89605 1.89605 0
-1.11068 2.68152 0
-2.68152 1.11068 0
-1.5708 1.5708 0
5.6416e-05 3.14159 0
1.629e-05 2.22136 0
-1.11076 2.68152 0
-0.325338 1.89605 0
1.629e-05 2.22152 0
0 -0.000113012 0
-0.325338 1.89619 0
0 -9.64357e-05 0
-1.11068 2.68152 0
-0.325315 1.89605 0
-1.5708 1.5708 0
-0.460081 1.11068 0
-0.325315 1.89619 0
0 -9.64357e-05 0
-0.460081 1.11076 0
0 -5.64154e-05 0
-3.14159 -5.6416e-05 0
-2.68152 1.11076 0
-2.22136 -1.629e-05 0
-1.89605 0.325338 0
-2.68152 1.11068 0
-1.5708 1.5708 0
-1.89605 0.325315 0
-1.11068 0.460081 0
-2.22152 -1.629e-05 0
-1.89619 0.325338 0
0.000113013 0 0
9.64355e-05 0 0
-1.89619 0.325315 0
-1.11076 0.460081 0
9.64355e-05 0 0
5.64155e-05 0 0
-1.5708 1.5708 0
-0.460081 1.11068 0
-1.11068 0.460081 0
-0.325315 0.325315 0
-0.460081 1.11076 0
0 -5.64154e-05 0
-0.325315 0.325338 0
0 -1.64105e-05 0
-1.11076 0.460081 0
-0.325338 0.325315 0
5.64155e-05 0 0
1.64105e-05 0 0
-0.325338 0.325338 0
0 -1.64105e-05 0
1.64105e-05 0 0
0 0 0
SCALARS pressure double 1
LOOKUP_TABLE default
-2.37232e-06 0.000240862 0.382432 0.353545 0.000329978 0.000393774 0.353932 0.270837 0.382338 0.353155 0.706693 0.653019 0.353542 0.270283 0.653571 0.499986 0.000393134 0.000318115 0.270838 0.146812 0.000231238 6.1488e-05 0.146414 0.00028177 0.270283 0.146424 0.499988 0.270872 0.146019 0.000286749 0.270301 0.000404469 0.70669 0.653016 0.923536 0.85316 0.653569 0.499985 0.853548 0.65298 0.923621 0.853558 0.999911 0.92357 0.853953 0.653553 0.923567 0.706679 0.499986 0.270872 0.652982 0.353542 0.2703 0.000404591 0.35314 0.000285054 0.653555 0.353947 0.706683 0.382383 0.353545 0.000285055 0.382388 -2.45325e-06 -6.1488e-05 -0.000231238 -0.00028177 -0.146414 -0.000318115 -0.000393134 -0.146812 -0.270838 -0.000286749 -0.146019 -0.000404469 -0.270301 -0.146424 -0.270283 -0.270872 -0.499988 -0.000393774 -0.000329978 -0.270837 -0.353932 -0.000240862 2.37062e-06 -0.353545 -0.382432 -0.270283 -0.353542 -0.499986 -0.653571 -0.353155 -0.382338 -0.653019 -0.706693 -0.000404591 -0.2703 -0.000285054 -0.35314 -0.270872 -0.499986 -0.353542 -0.652982 -0.000285055 -0.353545 2.45318e-06 -0.382388 -0.353947 -0.653555 -0.382383 -0.706683 -0.499985 -0.653569 -0.65298 -0.853548 -0.653016 -0.70669 -0.85316 -0.923536 -0.653553 -0.853953 -0.706679 -0.923567 -0.853558 -0.923621 -0.92357 -0.999911 1.00003 0.924136 0.924085 0.853498 0.924142 0.707492 0.853106 0.652969 0.924174 0.853899 0.70748 0.653506 0.853515 0.653545 0.652956 0.499983 0.707495 0.382958 0.652973 0.353135 0.382962 -2.45324e-06 0.353545 -0.000289588 0.653549 0.353542 0.499986 0.270305 0.353952 -0.000289587 0.270883 -0.000408061 0.707484 0.65351 0.383003 0.353927 0.65296 0.499986 0.353542 0.270894 0.382918 0.353545 -2.36598e-06 -0.000245362 0.35316 0.270346 -0.000334421 -0.000397284 0.49999 0.270307 0.270896 0.146457 0.270884 -0.000407938 0.146866 -0.000288629 0.270348 0.146073 -0.000396736 -0.000320067 0.146474 -0.000283652 -0.000233073 -6.14402e-05 2.45318e-06 -0.382962 0.000289588 -0.353545 -0.382958 -0.707495 -0.353135 -0.652973 0.000289587 -0.353952 0.00040806 -0.270883 -0.353542 -0.653549 -0.270305 -0.499986 -0.707492 -0.924142 -0.652969 -0.853106 -0.924136 -1.00003 -0.853498 -0.924085 -0.653545 -0.853515 -0.499983 -0.652956 -0.853899 -0.924174 -0.653506 -0.70748 0.000407938 -0.270884 0.000288629 -0.146866 -0.270307 -0.49999 -0.146457 -0.270896 0.000283652 -0.146474 6.14402e-05 0.000233073 -0.146073 -0.270348 0.000320067 0.000396736 -0.499986 -0.65296 -0.270894 -0.353542 -0.65351 -0.707484 -0.353927 -0.383003 -0.270346 -0.35316 0.000397284 0.00033442 -0.353545 -0.382918 0.000245362 2.36787e-06 
SCALARS global_div_diff double 1
LOOKUP_TABLE default
2.11529e-10 2.11529e-10 2.11529e-10 2.11529e-10 2.62163e-10 2.62163e-10 2.62163e-10 2.62163e-10 2.61593e-10 2.61593e-10 2.61593e-10 2.61593e-10 1.64297e-11 1.64297e-11 1.64297e-11 1.64297e-11 2.75916e-10 2.75916e-10 2.75916e-10 2.75916e-10 1.21161e-10 1.21161e-10 1.21161e-10 1.21161e-10 1.46431e-11 1.46431e-11 1.46431e-11 1.46431e-11 9.85338e-12 9.85338e-12 9.85338e-12 9.85338e-12 2.68767e-10 2.68767e-10 2.68767e-10 2.68767e-10 1.28243e-11 1.28243e-11 1.28243e-11 1.28243e-11 9.27601e-11 9.27601e-11 9.27601e-11 9.27601e-11 6.06175e-12 6.06175e-12 6.06175e-12 6.06175e-12 5.20116e-12 5.20116e-12 5.20116e-12 5.20116e-12 2.48169e-12 2.48169e-12 2.48169e-12 2.48169e-12 3.54431e-12 3.54431e-12 3.54431e-12 3.54431e-12 1.77945e-12 1.77945e-12 1.77945e-12 1.77945e-12 1.1963e-10 1.1963e-10 1.1963e-10 1.1963e-10 2.75982e-10 2.75982e-10 2.75982e-10 2.75982e-10 1.00399e-11 1.00399e-11 1.00399e-11 1.00399e-11 1.38979e-11 1.38979e-11 1.38979e-11 1.38979e-11 2.62618e-10 2.62618e-10 2.62618e-10 2.62618e-10 2.12325e-10 2.12325e-10 2.12325e-10 2.12325e-10 1.7122e-11 1.7122e-11 1.7122e-11 1.7122e-11 2.61986e-10 2.61986e-10 2.61986e-10 2.61986e-10 5.68578e-12 5.68578e-12 5.68578e-12 5.68578e-12 6.64793e-12 6.64793e-12 6.64793e-12 6.64793e-12 5.93171e-12 5.93171e-12 5.93171e-12 5.93171e-12 6.57463e-12 6.57463e-12 6.57463e-12 6.57463e-12 1.19397e-11 1.19397e-11 1.19397e-11 1.19397e-11 2.68958e-10 2.68958e-10 2.68958e-10 2.68958e-10 6.22115e-12 6.22115e-12 6.22115e-12 6.22115e-12 9.31151e-11 9.31151e-11 9.31151e-11 9.31151e-11 9.285e-11 9.285e-11 9.285e-11 9.285e-11 6.14901e-12 6.14901e-12 6.14901e-12 6.14901e-12 2.69086e-10 2.69086e-10 2.69086e-10 2.69086e-10 1.14463e-11 1.14463e-11 1.14463e-11 1.14463e-11 2.52086e-12 2.52086e-12 2.52086e-12 2.52086e-12 1.58928e-12 1.58928e-12 1.58928e-12 1.58928e-12 3.30143e-12 3.30143e-12 3.30143e-12 3.30143e-12 2.01041e-12 2.01041e-12 2.01041e-12 2.01041e-12 2.62366e-10 2.62366e-10 2.62366e-10 2.62366e-10 1.84782e-11 1.84782e-11 1.84782e-11 1.84782e-11 2.16461e-10 2.16461e-10 2.16461e-10 2.16461e-10 2.63568e-10 2.63568e-10 2.63568e-10 2.63568e-10 1.27566e-11 1.27566e-11 1.27566e-11 1.27566e-11 9.01693e-12 9.01693e-12 9.01693e-12 9.01693e-12 2.75667e-10 2.75667e-10 2.75667e-10 2.75667e-10 1.21055e-10 1.21055e-10 1.21055e-10 1.21055e-10 5.32235e-12 5.32235e-12 5.32235e-12 5.32235e-12 5.79389e-12 5.79389e-12 5.79389e-12 5.79389e-12 5.34785e-12 5.34785e-12 5.34785e-12 5.34785e-12 5.68639e-12 5.68639e-12 5.68639e-12 5.68639e-12 6.21892e-12 6.21892e-12 6.21892e-12 6.21892e-12 9.31835e-11 9.31835e-11 9.31835e-11 9.31835e-11 1.17073e-11 1.17073e-11 1.17073e-11 1.17073e-11 2.69153e-10 2.69153e-10 2.69153e-10 2.69153e-10 1.00421e-11 1.00421e-11 1.00421e-11 1.00421e-11 1.32917e-11 1.32917e-11 1.32917e-11 1.32917e-11 1.19556e-10 1.19556e-10 1.19556e-10 1.19556e-10 2.75653e-10 2.75653e-10 2.75653e-10 2.75653e-10 1.82943e-11 1.82943e-11 1.82943e-11 1.82943e-11 2.62093e-10 2.62093e-10 2.62093e-10 2.62093e-10 2.63136e-10 2.63136e-10 2.63136e-10 2.63136e-10 2.14767e-10 2.14767e-10 2.14767e-10 2.14767e-10 
SCALARS cell_div_diff double 1
LOOKUP_TABLE default
2.11529e-10 2.11529e-10 2.11529e-10 2.11529e-10 2.62163e-10 2.62163e-10 2.62163e-10 2.62163e-10 2.61593e-10 2.61593e-10 2.61593e-10 2.61593e-10 1.64297e-11 1.64297e-11 1.64297e-11 1.64297e-11 2.75916e-10 2.75916e-10 2.75916e-10 2.75916e-10 1.21161e-10 1.21161e-10 1.21161e-10 1.21161e-10 1.46414e-11 1.46414e-11 1.46414e-11 1.46414e-11 9.85254e-12 9.85254e-12 9.85254e-12 9.85254e-12 2.68768e-10 2.68768e-10 2.68768e-10 2.68768e-10 1.28238e-11 1.28238e-11 1.28238e-11 1.28238e-11 9.27599e-11 9.27599e-11 9.27599e-11 9.27599e-11 6.06132e-12 6.06132e-12 6.06132e-12 6.06132e-12 5.20078e-12 5.20078e-12 5.20078e-12 5.20078e-12 2.48252e-12 2.48252e-12 2.48252e-12 2.48252e-12 3.54364e-12 3.54364e-12 3.54364e-12 3.54364e-12 1.78052e-12 1.78052e-12 1.78052e-12 1.78052e-12 1.1963e-10 1.1963e-10 1.1963e-10 1.1963e-10 2.75982e-10 2.75982e-10 2.75982e-10 2.75982e-10 1.00418e-11 1.00418e-11 1.00418e-11 1.00418e-11 1.38983e-11 1.38983e-11 1.38983e-11 1.38983e-11 2.62618e-10 2.62618e-10 2.62618e-10 2.62618e-10 2.12325e-10 2.12325e-10 2.12325e-10 2.12325e-10 1.71216e-11 1.71216e-11 1.71216e-11 1.71216e-11 2.61986e-10 2.61986e-10 2.61986e-10 2.61986e-10 5.68942e-12 5.68942e-12 5.68942e-12 5.68942e-12 6.64891e-12 6.64891e-12 6.64891e-12 6.64891e-12 5.93266e-12 5.93266e-12 5.93266e-12 5.93266e-12 6.57626e-12 6.57626e-12 6.57626e-12 6.57626e-12 1.19395e-11 1.19395e-11 1.19395e-11 1.19395e-11 2.68957e-10 2.68957e-10 2.68957e-10 2.68957e-10 6.22179e-12 6.22179e-12 6.22179e-12 6.22179e-12 9.31154e-11 9.31154e-11 9.31154e-11 9.31154e-11 9.28498e-11 9.28498e-11 9.28498e-11 9.28498e-11 6.14837e-12 6.14837e-12 6.14837e-12 6.14837e-12 2.69087e-10 2.69087e-10 2.69087e-10 2.69087e-10 1.14459e-11 1.14459e-11 1.14459e-11 1.14459e-11 2.52162e-12 2.52162e-12 2.52162e-12 2.52162e-12 1.58825e-12 1.58825e-12 1.58825e-12 1.58825e-12 3.30431e-12 3.30431e-12 3.30431e-12 3.30431e-12 2.01007e-12 2.01007e-12 2.01007e-12 2.01007e-12 2.62366e-10 2.62366e-10 2.62366e-10 2.62366e-10 1.84772e-11 1.84772e-11 1.84772e-11 1.84772e-11 2.16461e-10 2.16461e-10 2.16461e-10 2.16461e-10 2.63568e-10 2.63568e-10 2.63568e-10 2.63568e-10 1.2757e-11 1.2757e-11 1.2757e-11 1.2757e-11 9.01789e-12 9.01789e-12 9.01789e-12 9.01789e-12 2.75667e-10 2.75667e-10 2.75667e-10 2.75667e-10 1.21055e-10 1.21055e-10 1.21055e-10 1.21055e-10 5.32117e-12 5.32117e-12 5.32117e-12 5.32117e-12 5.79435e-12 5.79435e-12 5.79435e-12 5.79435e-12 5.34587e-12 5.34587e-12 5.34587e-12 5.34587e-12 5.68593e-12 5.68593e-12 5.68593e-12 5.68593e-12 6.22125e-12 6.22125e-12 6.22125e-12 6.22125e-12 9.3184e-11 9.3184e-11 9.3184e-11 9.3184e-11 1.17065e-11 1.17065e-11 1.17065e-11 1.17065e-11 2.69153e-10 2.69153e-10 2.69153e-10 2.69153e-10 1.00401e-11 1.00401e-11 1.00401e-11 1.00401e-11 1.32929e-11 1.32929e-11 1.32929e-11 1.32929e-11 1.19556e-10 1.19556e-10 1.19556e-10 1.19556e-10 2.75653e-10 2.75653e-10 2.75653e-10 2.75653e-10 1.82944e-11 1.82944e-11 1.82944e-11 1.82944e-11 2.62093e-10 2.62093e-10 2.62093e-10 2.62093e-10 2.63136e-10 2.63136e-10 2.63136e-10 2.63136e-10 2.14767e-10 2.14767e-10 2.14767e-10 2.14767e-10 
SCALARS global_l2_diff double 1
LOOKUP_TABLE default
1.99097e-06 1.99097e-06 1.99097e-06 1.99097e-06 7.18211e-06 7.18211e-06 7.18211e-06 7.18211e-06 7.18211e-06 7.18211e-06 7.18211e-06 7.18211e-06 2.0794e-05 2.0794e-05 2.0794e-05 2.0794e-05 1.36281e-05 1.36281e-05 1.36281e-05 1.36281e-05 1.81066e-05 1.81066e-05 1.81066e-05 1.81066e-05 3.37352e-05 3.37352e-05 3.37352e-05 3.37352e-05 4.1897e-05 4.1897e-05 4.1897e-05 4.1897e-05 1.36281e-05 1.36281e-05 1.36281e-05 1.36281e-05 3.37352e-05 3.37352e-05 3.37352e-05 3.37352e-05 1.81066e-05 1.81066e-05 1.81066e-05 1.81066e-05 4.1897e-05 4.1897e-05 4.1897e-05 4.1897e-05 4.29373e-05 4.29373e-05 4.29373e-05 4.29373e-05 4.34652e-05 4.34652e-05 4.34652e-05 4.34652e-05 4.34652e-05 4.34652e-05 4.34652e-05 4.34652e-05 2.55162e-05 2.55162e-05 2.55162e-05 2.55162e-05 1.81066e-05 1.81066e-05 1.81066e-05 1.81066e-05 1.36281e-05 1.36281e-05 1.36281e-05 1.36281e-05 4.1897e-05 4.1897e-05 4.1897e-05 4.1897e-05 3.37352e-05 3.37352e-05 3.37352e-05 3.37352e-05 7.18211e-06 7.18211e-06 7.18211e-06 7.18211e-06 1.99097e-06 1.99097e-06 1.99097e-06 1.99097e-06 2.0794e-05 2.0794e-05 2.0794e-05 2.0794e-05 7.18211e-06 7.18211e-06 7.18211e-06 7.18211e-06 4.34652e-05 4.34652e-05 4.34652e-05 4.34652e-05 4.29373e-05 4.29373e-05 4.29373e-05 4.29373e-05 2.55162e-05 2.55162e-05 2.55162e-05 2.55162e-05 4.34652e-05 4.34652e-05 4.34652e-05 4.34652e-05 3.37352e-05 3.37352e-05 3.37352e-05 3.37352e-05 1.36281e-05 1.36281e-05 1.36281e-05 1.36281e-05 4.1897e-05 4.1897e-05 4.1897e-05 4.1897e-05 1.81066e-05 1.81066e-05 1.81066e-05 1.81066e-05 1.81066e-05 1.81066e-05 1.81066e-05 1.81066e-05 4.1897e-05 4.1897e-05 4.1897e-05 4.1897e-05 1.36281e-05 1.36281e-05 1.36281e-05 1.36281e-05 3.37352e-05 3.37352e-05 3.37352e-05 3.37352e-05 4.34652e-05 4.34652e-05 4.34652e-05 4.34652e-05 2.55162e-05 2.55162e-05 2.55162e-05 2.55162e-05 4.29373e-05 4.29373e-05 4.29373e-05 4.29373e-05 4.34652e-05 4.34652e-05 4.34652e-05 4.34652e-05 7.18211e-06 7.18211e-06 7.18211e-06 7.18211e-06 2.0794e-05 2.0794e-05 2.0794e-05 2.0794e-05 1.99097e-06 1.99097e-06 1.99097e-06 1.99097e-06 7.18211e-06 7.18211e-06 7.18211e-06 7.18211e-06 3.37352e-05 3.37352e-05 3.37352e-05 3.37352e-05 4.1897e-05 4.1897e-05 4.1897e-05 4.1897e-05 1.36281e-05 1.36281e-05 1.36281e-05 1.36281e-05 1.81066e-05 1.81066e-05 1.81066e-05 1.81066e-05 2.55162e-05 2.55162e-05 2.55162e-05 2.55162e-05 4.34652e-05 4.34652e-05 4.34652e-05 4.34652e-05 4.34652e-05 4.34652e-05 4.34652e-05 4.34652e-05 4.29373e-05 4.29373e-05 4.29373e-05 4.29373e-05 4.1897e-05 4.1897e-05 4.1897e-05 4.1897e-05 1.81066e-05 1.81066e-05 1.81066e-05 1.81066e-05 3.37352e-05 3.37352e-05 3.37352e-05 3.37352e-05 1.36281e-05 1.36281e-05 1.36281e-05 1.36281e-05 4.1897e-05 4.1897e-05 4.1897e-05 4.1897e-05 3.37352e-05 3.37352e-05 3.37352e-05 3.37352e-05 1.81066e-05 1.81066e-05 1.81066e-05 1.81066e-05 1.36281e-05 1.36281e-05 1.36281e-05 1.36281e-05 2.0794e-05 2.0794e-05 2.0794e-05 2.0794e-05 7.18211e-06 7.18211e-06 7.18211e-06 7.18211e-06 7.18211e-06 7.18211e-06 7.18211e-06 7.18211e-06 1.99097e-06 1.99097e-06 1.99097e-06 1.99097e-06 
SCALARS global_h1_diff double 1
LOOKUP_TABLE default
0.0001519 0.0001519 0.0001519 0.0001519 0.000561953 0.000561953 0.000561953 0.000561953 0.000561953 0.000561953 0.000561953 0.000561953 0.00163265 0.00163265 0.00163265 0.00163265 0.00108257 0.00108257 0.00108257 0.00108257 0.00144571 0.00144571 0.00144571 0.00144571 0.00266971 0.00266971 0.00266971 0.00266971 0.0033298 0.0033298 0.0033298 0.0033298 0.00108257 0.00108257 0.00108257 0.00108257 0.00266971 0.00266971 0.00266971 0.00266971 0.00144571 0.00144571 0.00144571 0.00144571 0.0033298 0.0033298 0.0033298 0.0033298 0.00340428 0.00340428 0.00340428 0.00340428 0.00345598 0.00345598 0.00345598 0.00345598 0.00345598 0.00345598 0.00345598 0.00345598 0.00203899 0.00203899 0.00203899 0.00203899 0.00144571 0.00144571 0.00144571 0.00144571 0.00108257 0.00108257 0.00108257 0.00108257 0.0033298 0.0033298 0.0033298 0.0033298 0.00266971 0.00266971 0.00266971 0.00266971 0.000561953 0.000561953 0.000561953 0.000561953 0.0001519 0.0001519 0.0001519 0.0001519 0.00163265 0.00163265 0.00163265 0.00163265 0.000561953 0.000561953 0.000561953 0.000561953 0.00345598 0.00345598 0.00345598 0.00345598 0.00340428 0.00340428 0.00340428 0.00340428 0.00203899 0.00203899 0.00203899 0.00203899 0.00345598 0.00345598 0.00345598 0.00345598 0.00266971 0.00266971 0.00266971 0.00266971 0.00108257 0.00108257 0.00108257 0.00108257 0.0033298 0.0033298 0.0033298 0.0033298 0.00144571 0.00144571 0.00144571 0.00144571 0.00144571 0.00144571 0.00144571 0.00144571 0.0033298 0.0033298 0.0033298 0.0033298 0.00108257 0.00108257 0.00108257 0.00108257 0.00266971 0.00266971 0.00266971 0.00266971 0.00345598 0.00345598 0.00345598 0.00345598 0.00203899 0.00203899 0.00203899 0.00203899 0.00340428 0.00340428 0.00340428 0.00340428 0.00345598 0.00345598 0.00345598 0.00345598 0.000561953 0.000561953 0.000561953 0.000561953 0.00163265 0.00163265 0.00163265 0.00163265 0.0001519 0.0001519 0.0001519 0.0001519 0.000561953 0.000561953 0.000561953 0.000561953 0.00266971 0.00266971 0.00266971 0.00266971 0.0033298 0.0033298 0.0033298 0.0033298 0.00108257 0.00108257 0.00108257 0.00108257 0.00144571 0.00144571 0.00144571 0.00144571 0.00203899 0.00203899 0.00203899 0.00203899 0.00345598 0.00345598 0.00345598 0.00345598 0.00345598 0.00345598 0.00345598 0.00345598 0.00340428 0.00340428 0.00340428 0.00340428 0.0033298 0.0033298 0.0033298 0.0033298 0.00144571 0.00144571 0.00144571 0.00144571 0.00266971 0.00266971 0.00266971 0.00266971 0.00108257 0.00108257 0.00108257 0.00108257 0.0033298 0.0033298 0.0033298 0.0033298 0.00266971 0.00266971 0.00266971 0.00266971 0.00144571 0.00144571 0.00144571 0.00144571 0.00108257 0.00108257 0.00108257 0.00108257 0.00163265 0.00163265 0.00163265 0.00163265 0.000561953 0.000561953 0.000561953 0.000561953 0.000561953 0.000561953 0.000561953 0.000561953 0.0001519 0.0001519 0.0001519 0.0001519 
