# vtk DataFile Version 3.0
#This file was generated by the deal.II library on 2017/9/21 at 11:25:13
ASCII
DATASET UNSTRUCTURED_GRID

POINTS 16 double
0 0 0
0.5 0 0
0 0.5 0
0.5 0.5 0
0.5 0 0
1 0 0
0.5 0.5 0
1 0.5 0
0 0.5 0
0.5 0.5 0
0 1 0
0.5 1 0
0.5 0.5 0
1 0.5 0
0.5 1 0
1 1 0

CELLS 4 20
4	0	1	3	2
4	4	5	7	6
4	8	9	11	10
4	12	13	15	14

CELL_TYPES 4
 9 9 9 9
POINT_DATA 16
VECTORS velocity double
0 0 0
-0.0645539 0 0
0 0.0645539 0
-0.0658423 0.0658423 0
-0.0645539 0 0
0 0 0
-0.0658423 -0.0658423 0
0 -0.0645539 0
0 0.0645539 0
0.0658423 0.0658423 0
0 0 0
0.0645539 0 0
0.0658423 -0.0658423 0
0 -0.0645539 0
0.0645539 0 0
0 0 0
SCALARS pressure double 1
LOOKUP_TABLE default
-0.00225114 0.161546 0.833078 -0.00225119 -0.161546 0.00225114 0.00225119 -0.833078 1.15616 -0.00225119 -0.00225115 -0.161535 0.00225119 -1.15616 0.161535 0.00225115 
SCALARS global_div_diff double 1
LOOKUP_TABLE default
1.5199e-09 1.5199e-09 1.5199e-09 1.5199e-09 1.52113e-09 1.52113e-09 1.52113e-09 1.52113e-09 8.69043e-10 8.69043e-10 8.69043e-10 8.69043e-10 8.63254e-10 8.63254e-10 8.63254e-10 8.63254e-10 
SCALARS cell_div_diff double 1
LOOKUP_TABLE default
1.5199e-09 1.5199e-09 1.5199e-09 1.5199e-09 1.52113e-09 1.52113e-09 1.52113e-09 1.52113e-09 8.69041e-10 8.69041e-10 8.69041e-10 8.69041e-10 8.63254e-10 8.63254e-10 8.63254e-10 8.63254e-10 
SCALARS global_l2_diff double 1
LOOKUP_TABLE default
0.0298377 0.0298377 0.0298377 0.0298377 0.0298377 0.0298377 0.0298377 0.0298377 0.0298377 0.0298377 0.0298377 0.0298377 0.0298377 0.0298377 0.0298377 0.0298377 
SCALARS global_h1_diff double 1
LOOKUP_TABLE default
0.773367 0.773367 0.773367 0.773367 0.773367 0.773367 0.773367 0.773367 0.773367 0.773367 0.773367 0.773367 0.773367 0.773367 0.773367 0.773367 
