# vtk DataFile Version 3.0
#This file was generated by the deal.II library on 2017/9/21 at 12:26:27
ASCII
DATASET UNSTRUCTURED_GRID

POINTS 4096 double
0 0 0
0.125 0 0
0 0.125 0
0.125 0.125 0
0 0 0.125
0.125 0 0.125
0 0.125 0.125
0.125 0.125 0.125
0.125 0 0
0.25 0 0
0.125 0.125 0
0.25 0.125 0
0.125 0 0.125
0.25 0 0.125
0.125 0.125 0.125
0.25 0.125 0.125
0 0.125 0
0.125 0.125 0
0 0.25 0
0.125 0.25 0
0 0.125 0.125
0.125 0.125 0.125
0 0.25 0.125
0.125 0.25 0.125
0.125 0.125 0
0.25 0.125 0
0.125 0.25 0
0.25 0.25 0
0.125 0.125 0.125
0.25 0.125 0.125
0.125 0.25 0.125
0.25 0.25 0.125
0 0 0.125
0.125 0 0.125
0 0.125 0.125
0.125 0.125 0.125
0 0 0.25
0.125 0 0.25
0 0.125 0.25
0.125 0.125 0.25
0.125 0 0.125
0.25 0 0.125
0.125 0.125 0.125
0.25 0.125 0.125
0.125 0 0.25
0.25 0 0.25
0.125 0.125 0.25
0.25 0.125 0.25
0 0.125 0.125
0.125 0.125 0.125
0 0.25 0.125
0.125 0.25 0.125
0 0.125 0.25
0.125 0.125 0.25
0 0.25 0.25
0.125 0.25 0.25
0.125 0.125 0.125
0.25 0.125 0.125
0.125 0.25 0.125
0.25 0.25 0.125
0.125 0.125 0.25
0.25 0.125 0.25
0.125 0.25 0.25
0.25 0.25 0.25
0.25 0 0
0.375 0 0
0.25 0.125 0
0.375 0.125 0
0.25 0 0.125
0.375 0 0.125
0.25 0.125 0.125
0.375 0.125 0.125
0.375 0 0
0.5 0 0
0.375 0.125 0
0.5 0.125 0
0.375 0 0.125
0.5 0 0.125
0.375 0.125 0.125
0.5 0.125 0.125
0.25 0.125 0
0.375 0.125 0
0.25 0.25 0
0.375 0.25 0
0.25 0.125 0.125
0.375 0.125 0.125
0.25 0.25 0.125
0.375 0.25 0.125
0.375 0.125 0
0.5 0.125 0
0.375 0.25 0
0.5 0.25 0
0.375 0.125 0.125
0.5 0.125 0.125
0.375 0.25 0.125
0.5 0.25 0.125
0.25 0 0.125
0.375 0 0.125
0.25 0.125 0.125
0.375 0.125 0.125
0.25 0 0.25
0.375 0 0.25
0.25 0.125 0.25
0.375 0.125 0.25
0.375 0 0.125
0.5 0 0.125
0.375 0.125 0.125
0.5 0.125 0.125
0.375 0 0.25
0.5 0 0.25
0.375 0.125 0.25
0.5 0.125 0.25
0.25 0.125 0.125
0.375 0.125 0.125
0.25 0.25 0.125
0.375 0.25 0.125
0.25 0.125 0.25
0.375 0.125 0.25
0.25 0.25 0.25
0.375 0.25 0.25
0.375 0.125 0.125
0.5 0.125 0.125
0.375 0.25 0.125
0.5 0.25 0.125
0.375 0.125 0.25
0.5 0.125 0.25
0.375 0.25 0.25
0.5 0.25 0.25
0 0.25 0
0.125 0.25 0
0 0.375 0
0.125 0.375 0
0 0.25 0.125
0.125 0.25 0.125
0 0.375 0.125
0.125 0.375 0.125
0.125 0.25 0
0.25 0.25 0
0.125 0.375 0
0.25 0.375 0
0.125 0.25 0.125
0.25 0.25 0.125
0.125 0.375 0.125
0.25 0.375 0.125
0 0.375 0
0.125 0.375 0
0 0.5 0
0.125 0.5 0
0 0.375 0.125
0.125 0.375 0.125
0 0.5 0.125
0.125 0.5 0.125
0.125 0.375 0
0.25 0.375 0
0.125 0.5 0
0.25 0.5 0
0.125 0.375 0.125
0.25 0.375 0.125
0.125 0.5 0.125
0.25 0.5 0.125
0 0.25 0.125
0.125 0.25 0.125
0 0.375 0.125
0.125 0.375 0.125
0 0.25 0.25
0.125 0.25 0.25
0 0.375 0.25
0.125 0.375 0.25
0.125 0.25 0.125
0.25 0.25 0.125
0.125 0.375 0.125
0.25 0.375 0.125
0.125 0.25 0.25
0.25 0.25 0.25
0.125 0.375 0.25
0.25 0.375 0.25
0 0.375 0.125
0.125 0.375 0.125
0 0.5 0.125
0.125 0.5 0.125
0 0.375 0.25
0.125 0.375 0.25
0 0.5 0.25
0.125 0.5 0.25
0.125 0.375 0.125
0.25 0.375 0.125
0.125 0.5 0.125
0.25 0.5 0.125
0.125 0.375 0.25
0.25 0.375 0.25
0.125 0.5 0.25
0.25 0.5 0.25
0.25 0.25 0
0.375 0.25 0
0.25 0.375 0
0.375 0.375 0
0.25 0.25 0.125
0.375 0.25 0.125
0.25 0.375 0.125
0.375 0.375 0.125
0.375 0.25 0
0.5 0.25 0
0.375 0.375 0
0.5 0.375 0
0.375 0.25 0.125
0.5 0.25 0.125
0.375 0.375 0.125
0.5 0.375 0.125
0.25 0.375 0
0.375 0.375 0
0.25 0.5 0
0.375 0.5 0
0.25 0.375 0.125
0.375 0.375 0.125
0.25 0.5 0.125
0.375 0.5 0.125
0.375 0.375 0
0.5 0.375 0
0.375 0.5 0
0.5 0.5 0
0.375 0.375 0.125
0.5 0.375 0.125
0.375 0.5 0.125
0.5 0.5 0.125
0.25 0.25 0.125
0.375 0.25 0.125
0.25 0.375 0.125
0.375 0.375 0.125
0.25 0.25 0.25
0.375 0.25 0.25
0.25 0.375 0.25
0.375 0.375 0.25
0.375 0.25 0.125
0.5 0.25 0.125
0.375 0.375 0.125
0.5 0.375 0.125
0.375 0.25 0.25
0.5 0.25 0.25
0.375 0.375 0.25
0.5 0.375 0.25
0.25 0.375 0.125
0.375 0.375 0.125
0.25 0.5 0.125
0.375 0.5 0.125
0.25 0.375 0.25
0.375 0.375 0.25
0.25 0.5 0.25
0.375 0.5 0.25
0.375 0.375 0.125
0.5 0.375 0.125
0.375 0.5 0.125
0.5 0.5 0.125
0.375 0.375 0.25
0.5 0.375 0.25
0.375 0.5 0.25
0.5 0.5 0.25
0 0 0.25
0.125 0 0.25
0 0.125 0.25
0.125 0.125 0.25
0 0 0.375
0.125 0 0.375
0 0.125 0.375
0.125 0.125 0.375
0.125 0 0.25
0.25 0 0.25
0.125 0.125 0.25
0.25 0.125 0.25
0.125 0 0.375
0.25 0 0.375
0.125 0.125 0.375
0.25 0.125 0.375
0 0.125 0.25
0.125 0.125 0.25
0 0.25 0.25
0.125 0.25 0.25
0 0.125 0.375
0.125 0.125 0.375
0 0.25 0.375
0.125 0.25 0.375
0.125 0.125 0.25
0.25 0.125 0.25
0.125 0.25 0.25
0.25 0.25 0.25
0.125 0.125 0.375
0.25 0.125 0.375
0.125 0.25 0.375
0.25 0.25 0.375
0 0 0.375
0.125 0 0.375
0 0.125 0.375
0.125 0.125 0.375
0 0 0.5
0.125 0 0.5
0 0.125 0.5
0.125 0.125 0.5
0.125 0 0.375
0.25 0 0.375
0.125 0.125 0.375
0.25 0.125 0.375
0.125 0 0.5
0.25 0 0.5
0.125 0.125 0.5
0.25 0.125 0.5
0 0.125 0.375
0.125 0.125 0.375
0 0.25 0.375
0.125 0.25 0.375
0 0.125 0.5
0.125 0.125 0.5
0 0.25 0.5
0.125 0.25 0.5
0.125 0.125 0.375
0.25 0.125 0.375
0.125 0.25 0.375
0.25 0.25 0.375
0.125 0.125 0.5
0.25 0.125 0.5
0.125 0.25 0.5
0.25 0.25 0.5
0.25 0 0.25
0.375 0 0.25
0.25 0.125 0.25
0.375 0.125 0.25
0.25 0 0.375
0.375 0 0.375
0.25 0.125 0.375
0.375 0.125 0.375
0.375 0 0.25
0.5 0 0.25
0.375 0.125 0.25
0.5 0.125 0.25
0.375 0 0.375
0.5 0 0.375
0.375 0.125 0.375
0.5 0.125 0.375
0.25 0.125 0.25
0.375 0.125 0.25
0.25 0.25 0.25
0.375 0.25 0.25
0.25 0.125 0.375
0.375 0.125 0.375
0.25 0.25 0.375
0.375 0.25 0.375
0.375 0.125 0.25
0.5 0.125 0.25
0.375 0.25 0.25
0.5 0.25 0.25
0.375 0.125 0.375
0.5 0.125 0.375
0.375 0.25 0.375
0.5 0.25 0.375
0.25 0 0.375
0.375 0 0.375
0.25 0.125 0.375
0.375 0.125 0.375
0.25 0 0.5
0.375 0 0.5
0.25 0.125 0.5
0.375 0.125 0.5
0.375 0 0.375
0.5 0 0.375
0.375 0.125 0.375
0.5 0.125 0.375
0.375 0 0.5
0.5 0 0.5
0.375 0.125 0.5
0.5 0.125 0.5
0.25 0.125 0.375
0.375 0.125 0.375
0.25 0.25 0.375
0.375 0.25 0.375
0.25 0.125 0.5
0.375 0.125 0.5
0.25 0.25 0.5
0.375 0.25 0.5
0.375 0.125 0.375
0.5 0.125 0.375
0.375 0.25 0.375
0.5 0.25 0.375
0.375 0.125 0.5
0.5 0.125 0.5
0.375 0.25 0.5
0.5 0.25 0.5
0 0.25 0.25
0.125 0.25 0.25
0 0.375 0.25
0.125 0.375 0.25
0 0.25 0.375
0.125 0.25 0.375
0 0.375 0.375
0.125 0.375 0.375
0.125 0.25 0.25
0.25 0.25 0.25
0.125 0.375 0.25
0.25 0.375 0.25
0.125 0.25 0.375
0.25 0.25 0.375
0.125 0.375 0.375
0.25 0.375 0.375
0 0.375 0.25
0.125 0.375 0.25
0 0.5 0.25
0.125 0.5 0.25
0 0.375 0.375
0.125 0.375 0.375
0 0.5 0.375
0.125 0.5 0.375
0.125 0.375 0.25
0.25 0.375 0.25
0.125 0.5 0.25
0.25 0.5 0.25
0.125 0.375 0.375
0.25 0.375 0.375
0.125 0.5 0.375
0.25 0.5 0.375
0 0.25 0.375
0.125 0.25 0.375
0 0.375 0.375
0.125 0.375 0.375
0 0.25 0.5
0.125 0.25 0.5
0 0.375 0.5
0.125 0.375 0.5
0.125 0.25 0.375
0.25 0.25 0.375
0.125 0.375 0.375
0.25 0.375 0.375
0.125 0.25 0.5
0.25 0.25 0.5
0.125 0.375 0.5
0.25 0.375 0.5
0 0.375 0.375
0.125 0.375 0.375
0 0.5 0.375
0.125 0.5 0.375
0 0.375 0.5
0.125 0.375 0.5
0 0.5 0.5
0.125 0.5 0.5
0.125 0.375 0.375
0.25 0.375 0.375
0.125 0.5 0.375
0.25 0.5 0.375
0.125 0.375 0.5
0.25 0.375 0.5
0.125 0.5 0.5
0.25 0.5 0.5
0.25 0.25 0.25
0.375 0.25 0.25
0.25 0.375 0.25
0.375 0.375 0.25
0.25 0.25 0.375
0.375 0.25 0.375
0.25 0.375 0.375
0.375 0.375 0.375
0.375 0.25 0.25
0.5 0.25 0.25
0.375 0.375 0.25
0.5 0.375 0.25
0.375 0.25 0.375
0.5 0.25 0.375
0.375 0.375 0.375
0.5 0.375 0.375
0.25 0.375 0.25
0.375 0.375 0.25
0.25 0.5 0.25
0.375 0.5 0.25
0.25 0.375 0.375
0.375 0.375 0.375
0.25 0.5 0.375
0.375 0.5 0.375
0.375 0.375 0.25
0.5 0.375 0.25
0.375 0.5 0.25
0.5 0.5 0.25
0.375 0.375 0.375
0.5 0.375 0.375
0.375 0.5 0.375
0.5 0.5 0.375
0.25 0.25 0.375
0.375 0.25 0.375
0.25 0.375 0.375
0.375 0.375 0.375
0.25 0.25 0.5
0.375 0.25 0.5
0.25 0.375 0.5
0.375 0.375 0.5
0.375 0.25 0.375
0.5 0.25 0.375
0.375 0.375 0.375
0.5 0.375 0.375
0.375 0.25 0.5
0.5 0.25 0.5
0.375 0.375 0.5
0.5 0.375 0.5
0.25 0.375 0.375
0.375 0.375 0.375
0.25 0.5 0.375
0.375 0.5 0.375
0.25 0.375 0.5
0.375 0.375 0.5
0.25 0.5 0.5
0.375 0.5 0.5
0.375 0.375 0.375
0.5 0.375 0.375
0.375 0.5 0.375
0.5 0.5 0.375
0.375 0.375 0.5
0.5 0.375 0.5
0.375 0.5 0.5
0.5 0.5 0.5
0.5 0 0
0.625 0 0
0.5 0.125 0
0.625 0.125 0
0.5 0 0.125
0.625 0 0.125
0.5 0.125 0.125
0.625 0.125 0.125
0.625 0 0
0.75 0 0
0.625 0.125 0
0.75 0.125 0
0.625 0 0.125
0.75 0 0.125
0.625 0.125 0.125
0.75 0.125 0.125
0.5 0.125 0
0.625 0.125 0
0.5 0.25 0
0.625 0.25 0
0.5 0.125 0.125
0.625 0.125 0.125
0.5 0.25 0.125
0.625 0.25 0.125
0.625 0.125 0
0.75 0.125 0
0.625 0.25 0
0.75 0.25 0
0.625 0.125 0.125
0.75 0.125 0.125
0.625 0.25 0.125
0.75 0.25 0.125
0.5 0 0.125
0.625 0 0.125
0.5 0.125 0.125
0.625 0.125 0.125
0.5 0 0.25
0.625 0 0.25
0.5 0.125 0.25
0.625 0.125 0.25
0.625 0 0.125
0.75 0 0.125
0.625 0.125 0.125
0.75 0.125 0.125
0.625 0 0.25
0.75 0 0.25
0.625 0.125 0.25
0.75 0.125 0.25
0.5 0.125 0.125
0.625 0.125 0.125
0.5 0.25 0.125
0.625 0.25 0.125
0.5 0.125 0.25
0.625 0.125 0.25
0.5 0.25 0.25
0.625 0.25 0.25
0.625 0.125 0.125
0.75 0.125 0.125
0.625 0.25 0.125
0.75 0.25 0.125
0.625 0.125 0.25
0.75 0.125 0.25
0.625 0.25 0.25
0.75 0.25 0.25
0.75 0 0
0.875 0 0
0.75 0.125 0
0.875 0.125 0
0.75 0 0.125
0.875 0 0.125
0.75 0.125 0.125
0.875 0.125 0.125
0.875 0 0
1 0 0
0.875 0.125 0
1 0.125 0
0.875 0 0.125
1 0 0.125
0.875 0.125 0.125
1 0.125 0.125
0.75 0.125 0
0.875 0.125 0
0.75 0.25 0
0.875 0.25 0
0.75 0.125 0.125
0.875 0.125 0.125
0.75 0.25 0.125
0.875 0.25 0.125
0.875 0.125 0
1 0.125 0
0.875 0.25 0
1 0.25 0
0.875 0.125 0.125
1 0.125 0.125
0.875 0.25 0.125
1 0.25 0.125
0.75 0 0.125
0.875 0 0.125
0.75 0.125 0.125
0.875 0.125 0.125
0.75 0 0.25
0.875 0 0.25
0.75 0.125 0.25
0.875 0.125 0.25
0.875 0 0.125
1 0 0.125
0.875 0.125 0.125
1 0.125 0.125
0.875 0 0.25
1 0 0.25
0.875 0.125 0.25
1 0.125 0.25
0.75 0.125 0.125
0.875 0.125 0.125
0.75 0.25 0.125
0.875 0.25 0.125
0.75 0.125 0.25
0.875 0.125 0.25
0.75 0.25 0.25
0.875 0.25 0.25
0.875 0.125 0.125
1 0.125 0.125
0.875 0.25 0.125
1 0.25 0.125
0.875 0.125 0.25
1 0.125 0.25
0.875 0.25 0.25
1 0.25 0.25
0.5 0.25 0
0.625 0.25 0
0.5 0.375 0
0.625 0.375 0
0.5 0.25 0.125
0.625 0.25 0.125
0.5 0.375 0.125
0.625 0.375 0.125
0.625 0.25 0
0.75 0.25 0
0.625 0.375 0
0.75 0.375 0
0.625 0.25 0.125
0.75 0.25 0.125
0.625 0.375 0.125
0.75 0.375 0.125
0.5 0.375 0
0.625 0.375 0
0.5 0.5 0
0.625 0.5 0
0.5 0.375 0.125
[...]
POINT_DATA 4096
VECTORS velocity double
0 0 0
0.000434474 0 0
0 -0.000217239 0
0.00620831 -0.00278634 0
0 0 -0.000217237
0.00620831 0 -0.00278635
0 -0.00342196 -0.00342196
0.480193 -0.240097 -0.240097
0.000434474 0 0
0.000345918 0 0
0.00620831 -0.00275068 0
0.0182994 -0.00363788 0
0.00620831 0 -0.00275068
0.0182994 0 -0.00363788
0.480193 -0.243165 -0.243165
1.63439 -0.339593 -0.339593
0 -0.000217239 0
0.00622781 -0.00278634 0
0 -0.00017296 0
0.00849166 -0.00915462 0
0 -0.00342196 -0.00347713
0.486911 -0.240097 -0.243746
0 -0.00914481 -0.00485378
0.681204 -0.817196 -0.341611
0.00622781 -0.00275068 0
0.018551 -0.00363788 0
0.00849166 -0.00927964 0
0.0259079 -0.0130042 0
0.486911 -0.243165 -0.246879
1.65952 -0.339593 -0.344885
0.681204 -0.829769 -0.346021
2.328 -1.16474 -0.483722
0 0 -0.000217237
0.00622781 0 -0.00278635
0 -0.00347713 -0.00342196
0.486911 -0.243746 -0.240097
0 0 -0.000172959
0.00849165 0 -0.00915462
0 -0.00485378 -0.00914481
0.681204 -0.341611 -0.817196
0.00622781 0 -0.00275068
0.018551 0 -0.00363788
0.486911 -0.246879 -0.243165
1.65952 -0.344885 -0.339593
0.00849165 0 -0.00927964
0.0259079 0 -0.0130042
0.681204 -0.346021 -0.829769
2.328 -0.483722 -1.16474
0 -0.00347713 -0.00347713
0.493758 -0.243746 -0.243746
0 -0.00927136 -0.00485378
0.690906 -0.829752 -0.341611
0 -0.00485378 -0.00927136
0.690906 -0.341611 -0.829752
0 -0.0129037 -0.0129037
0.967444 -1.16327 -1.16327
0.493758 -0.246879 -0.246879
1.68506 -0.344885 -0.344885
0.690906 -0.842528 -0.346021
2.36388 -1.18265 -0.483722
0.690906 -0.346021 -0.842528
2.36388 -0.483722 -1.18265
0.967444 -1.18122 -1.18122
3.31641 -1.6582 -1.6582
0.000345918 0 0
3.9356e-06 0 0
0.0182994 -0.00364587 0
0.0297842 -0.00257636 0
0.0182994 0 -0.00364587
0.0297842 0 -0.00257636
1.63439 -0.339633 -0.339633
2.787 -0.241763 -0.241763
3.9356e-06 0 0
-0.000147945 0 0
0.0297842 -0.00255693 0
0.0345214 -1.57045e-05 0
0.0297842 0 -0.00255693
0.0345214 0 -1.57023e-05
2.787 -0.238354 -0.238354
3.26438 -0.00242506 -0.00242506
0.018551 -0.00364587 0
0.0303331 -0.00257636 0
0.0259079 -0.0130115 0
0.0429459 -0.00929669 0
1.65952 -0.339633 -0.344925
2.83089 -0.241763 -0.245537
2.328 -1.16479 -0.483787
3.97635 -0.83036 -0.344444
0.0303331 -0.00255693 0
0.0351972 -1.57045e-05 0
0.0429459 -0.00915313 0
0.0500152 -0.000103141 0
2.83089 -0.238354 -0.242078
3.31606 -0.00242506 -0.00245995
3.97635 -0.817695 -0.339587
4.6594 -0.00897705 -0.00345133
0.018551 0 -0.00364587
0.0303331 0 -0.00257636
1.65952 -0.344925 -0.339633
2.83089 -0.245537 -0.241763
0.0259079 0 -0.0130115
0.0429459 0 -0.0092967
2.328 -0.483787 -1.16479
3.97635 -0.344444 -0.83036
0.0303331 0 -0.00255693
0.0351972 0 -1.57023e-05
2.83089 -0.242078 -0.238354
3.31606 -0.00245995 -0.00242506
0.0429459 0 -0.00915313
0.0500152 0 -0.000103143
3.97635 -0.339587 -0.817695
4.6594 -0.00345133 -0.00897705
1.68506 -0.344925 -0.344925
2.87545 -0.245537 -0.245537
2.36388 -1.18271 -0.483787
4.03874 -0.843123 -0.344444
2.36388 -0.483787 -1.18271
4.03874 -0.344444 -0.843123
3.31641 -1.65827 -1.65827
5.67125 -1.18207 -1.18207
2.87545 -0.242078 -0.242078
3.36851 -0.00245995 -0.00245995
4.03874 -0.830261 -0.339587
4.73278 -0.00911588 -0.00345133
4.03874 -0.339587 -0.830261
4.73278 -0.00345133 -0.00911588
5.67125 -1.16404 -1.16404
6.64734 -0.012776 -0.012776
0 -0.00017296 0
0.00850728 -0.00915462 0
0 -1.96535e-06 0
0.00605556 -0.0154134 0
0 -0.00914481 -0.0048614
0.68124 -0.817196 -0.341607
0 -0.0143708 -0.0034792
0.485052 -1.3935 -0.243289
0.00850728 -0.00927964 0
0.0259141 -0.0130042 0
0.00605556 -0.0157498 0
0.0184666 -0.0225708 0
0.68124 -0.829769 -0.346012
2.32802 -1.16474 -0.483694
0.485052 -1.4159 -0.246423
1.6588 -1.9923 -0.344488
0 -1.96535e-06 0
0.00596404 -0.0154134 0
0 7.39736e-05 0
6.60138e-05 -0.0179994 0
0 -0.0143708 -0.0034071
0.477932 -1.3935 -0.239578
0 -0.016522 -5.03125e-05
0.00504715 -1.63219 -0.00262209
0.00596404 -0.0157498 0
0.0181821 -0.0225708 0
6.60138e-05 -0.0184254 0
0.000202636 -0.0265563 0
0.477932 -1.4159 -0.242662
1.6335 -1.9923 -0.339228
0.00504715 -1.65867 -0.00265774
0.0179049 -2.33538 -0.00371527
0 -0.00927136 -0.0048614
0.690937 -0.829752 -0.341607
0 -0.0145833 -0.0034792
0.49196 -1.41499 -0.243289
0 -0.0129037 -0.0129026
0.967482 -1.16327 -1.16323
0 -0.0203751 -0.00916989
0.688932 -1.98405 -0.828441
0.690937 -0.842528 -0.346012
2.36389 -1.18265 -0.483694
0.49196 -1.43772 -0.246423
1.68436 -2.02281 -0.344488
0.967482 -1.18122 -1.18118
3.31642 -1.6582 -1.65815
0.688932 -2.01593 -0.841241
2.36306 -2.83562 -1.18099
0 -0.0145833 -0.0034071
0.48474 -1.41499 -0.239578
0 -0.0167719 -5.03125e-05
0.00511769 -1.65739 -0.00262209
0 -0.0203751 -0.00902897
0.678815 -1.98405 -0.815805
0 -0.0234589 -9.9493e-05
0.0071666 -2.32402 -0.00892785
0.48474 -1.43772 -0.242662
1.65867 -2.02281 -0.339228
0.00511769 -1.68425 -0.00265774
0.0181833 -2.3711 -0.00371527
0.678815 -2.01593 -0.828408
2.32701 -2.83562 -1.16297
0.0071666 -2.36168 -0.00906745
0.0255062 -3.32367 -0.0127302
0.0259141 -0.0130115 0
0.0429402 -0.00929669 0
0.0184666 -0.0225786 0
0.0306573 -0.0162049 0
2.32802 -1.16479 -0.48376
3.97641 -0.83036 -0.344426
1.6588 -1.99244 -0.344536
2.83441 -1.42142 -0.245308
0.0429402 -0.00915313 0
0.0500059 -0.000103141 0
0.0306573 -0.0159292 0
0.0357261 -0.000194298 0
3.97641 -0.817695 -0.339569
4.6595 -0.00897705 -0.00345115
2.83441 -1.39941 -0.241849
3.32169 -0.0155767 -0.0024578
0.0181821 -0.0225786 0
0.0301796 -0.0162049 0
0.000202636 -0.0265658 0
0.000336984 -0.0190928 0
1.6335 -1.99244 -0.339275
2.79085 -1.42142 -0.241561
0.0179049 -2.33558 -0.00371592
0.0308037 -1.66659 -0.00264585
0.0301796 -0.0159292 0
0.0351675 -0.000194298 0
0.000336984 -0.0187613 0
0.000393218 -0.00023269 0
2.79085 -1.39941 -0.238155
3.27057 -0.0155767 -0.0024205
0.0308037 -1.6407 -0.0026088
0.0361539 -0.0183177 -2.63286e-05
2.36389 -1.18271 -0.48376
4.03881 -0.843123 -0.344426
1.68436 -2.02295 -0.344536
2.87886 -1.44313 -0.245308
3.31642 -1.65827 -1.65822
5.67132 -1.18207 -1.18203
2.36306 -2.83577 -1.18103
4.0422 -2.02264 -0.841875
4.03881 -0.830261 -0.339569
4.73288 -0.00911588 -0.00345115
2.87886 -1.42079 -0.241849
3.37397 -0.015819 -0.0024578
5.67132 -1.16404 -1.164
6.64746 -0.012776 -0.0127756
4.0422 -1.99133 -0.829028
4.73835 -0.0221577 -0.00909929
1.65867 -2.02295 -0.339275
2.83461 -1.44313 -0.241561
0.0181833 -2.37129 -0.00371592
0.0312926 -1.692 -0.00264585
2.32701 -2.83577 -1.16302
3.98009 -2.02264 -0.829033
0.0255062 -3.32387 -0.0127307
0.0439262 -2.37121 -0.00907552
2.83461 -1.42079 -0.238155
3.32203 -0.015819 -0.0024205
0.0312926 -1.66572 -0.0026088
0.0367299 -0.0186028 -2.63286e-05
3.98009 -1.99133 -0.816384
4.66543 -0.0221577 -0.00895912
0.0439262 -2.33439 -0.00893559
0.0515669 -0.0260521 -9.9078e-05
0 0 -0.000172959
0.00850728 0 -0.00915462
0 -0.00486141 -0.00914481
0.68124 -0.341607 -0.817196
0 0 -1.96479e-06
0.00605556 0 -0.0154134
0 -0.00347921 -0.0143708
0.485052 -0.243289 -1.3935
0.00850728 0 -0.00927964
0.0259141 0 -0.0130042
0.68124 -0.346012 -0.829769
2.32802 -0.483694 -1.16474
0.00605556 0 -0.0157498
0.0184666 0 -0.0225708
0.485052 -0.246423 -1.4159
1.6588 -0.344488 -1.9923
0 -0.00486141 -0.00927136
0.690937 -0.341607 -0.829752
0 -0.0129026 -0.0129037
0.967482 -1.16323 -1.16327
0 -0.00347921 -0.0145833
0.49196 -0.243289 -1.41499
0 -0.00916989 -0.0203751
0.688932 -0.828441 -1.98405
0.690937 -0.346012 -0.842528
2.36389 -0.483694 -1.18265
0.967482 -1.18118 -1.18122
3.31642 -1.65815 -1.6582
0.49196 -0.246423 -1.43772
1.68436 -0.344488 -2.02281
0.688932 -0.841241 -2.01593
2.36306 -1.18099 -2.83562
0 0 -1.96479e-06
0.00596404 0 -0.0154134
0 -0.00340711 -0.0143708
0.477932 -0.239578 -1.3935
0 0 7.39725e-05
6.60125e-05 0 -0.0179994
0 -5.03159e-05 -0.016522
0.00504714 -0.00262209 -1.63219
0.00596404 0 -0.0157498
0.0181821 0 -0.0225708
0.477932 -0.242662 -1.4159
1.6335 -0.339228 -1.9923
6.60125e-05 0 -0.0184254
0.000202635 0 -0.0265563
0.00504714 -0.00265775 -1.65867
0.0179049 -0.00371527 -2.33538
0 -0.00340711 -0.0145833
0.48474 -0.239578 -1.41499
0 -0.00902897 -0.0203751
0.678815 -0.815805 -1.98405
0 -5.03159e-05 -0.0167719
0.00511769 -0.00262209 -1.65739
0 -9.94921e-05 -0.0234589
0.0071666 -0.00892785 -2.32402
0.48474 -0.242662 -1.43772
1.65867 -0.339228 -2.02281
0.678815 -0.828408 -2.01593
2.32701 -1.16297 -2.83562
0.00511769 -0.00265775 -1.68425
0.0181833 -0.00371527 -2.3711
0.0071666 -0.00906745 -2.36168
0.0255062 -0.0127302 -3.32367
0.0259141 0 -0.0130115
0.0429402 0 -0.0092967
2.32802 -0.48376 -1.16479
3.97641 -0.344426 -0.83036
0.0184666 0 -0.0225786
0.0306573 0 -0.016205
1.6588 -0.344536 -1.99244
2.83441 -0.245308 -1.42142
0.0429402 0 -0.00915313
0.0500059 0 -0.000103143
3.97641 -0.339569 -0.817695
4.6595 -0.00345115 -0.00897705
0.0306573 0 -0.0159292
0.0357261 0 -0.000194298
2.83441 -0.241849 -1.39941
3.32169 -0.0024578 -0.0155767
2.36389 -0.48376 -1.18271
4.03881 -0.344426 -0.843123
3.31642 -1.65822 -1.65827
5.67132 -1.18203 -1.18207
1.68436 -0.344536 -2.02295
2.87886 -0.245308 -1.44313
2.36306 -1.18103 -2.83577
4.0422 -0.841875 -2.02264
4.03881 -0.339569 -0.830261
4.73288 -0.00345115 -0.00911588
5.67132 -1.164 -1.16404
6.64746 -0.0127756 -0.012776
2.87886 -0.241849 -1.42079
3.37397 -0.0024578 -0.015819
4.0422 -0.829028 -1.99133
4.73835 -0.00909929 -0.0221577
0.0181821 0 -0.0225786
0.0301796 0 -0.016205
1.6335 -0.339275 -1.99244
2.79085 -0.241561 -1.42142
0.000202635 0 -0.0265658
0.000336983 0 -0.0190928
0.0179049 -0.00371592 -2.33558
0.0308037 -0.00264585 -1.66659
0.0301796 0 -0.0159292
0.0351675 0 -0.000194298
2.79085 -0.238155 -1.39941
3.27057 -0.00242049 -0.0155767
0.000336983 0 -0.0187613
0.000393218 0 -0.000232688
0.0308037 -0.0026088 -1.6407
0.0361539 -2.63291e-05 -0.0183177
1.65867 -0.339275 -2.02295
2.83461 -0.241561 -1.44313
2.32701 -1.16302 -2.83577
3.98009 -0.829033 -2.02264
0.0181833 -0.00371592 -2.37129
0.0312926 -0.00264585 -1.692
0.0255062 -0.0127307 -3.32387
0.0439262 -0.00907553 -2.37121
2.83461 -0.238155 -1.42079
3.32203 -0.00242049 -0.015819
3.98009 -0.816384 -1.99133
4.66543 -0.00895912 -0.0221577
0.0312926 -0.0026088 -1.66572
0.0367299 -2.63291e-05 -0.0186028
0.0439262 -0.00893559 -2.33439
0.0515669 -9.90801e-05 -0.0260521
0 -0.0129026 -0.0129026
0.967521 -1.16323 -1.16323
0 -0.0203617 -0.00916989
0.688962 -1.98397 -0.828441
0 -0.00916989 -0.0203617
0.688962 -0.828441 -1.98397
0 -0.0144524 -0.0144524
0.490616 -1.41299 -1.41299
0.967521 -1.18118 -1.18118
3.31643 -1.65815 -1.65815
0.688962 -2.01586 -0.841241
2.36307 -2.83555 -1.18099
0.688962 -0.841241 -2.01586
2.36307 -1.18099 -2.83555
0.490616 -1.43572 -1.43572
1.68375 -2.01956 -2.01956
0 -0.0203617 -0.00902897
0.678844 -1.98397 -0.815805
0 -0.0234402 -9.9493e-05
0.00716707 -2.32392 -0.00892785
0 -0.0144524 -0.0142504
0.48341 -1.41299 -1.39144
0 -0.0166333 -0.000142687
0.00510365 -1.65511 -0.0152271
0.678844 -2.01586 -0.828408
2.32702 -2.83555 -1.16297
0.00716707 -2.36159 -0.00906745
0.0255063 -3.32359 -0.0127302
0.48341 -1.43572 -1.41382
1.65806 -2.01956 -1.98876
0.00510365 -1.68197 -0.0154736
0.0181748 -2.36713 -0.0217686
0 -0.00902897 -0.0203617
0.678844 -0.815805 -1.98397
0 -0.0142504 -0.0144524
0.48341 -1.39144 -1.41299
0 -9.94921e-05 -0.0234402
0.00716707 -0.00892785 -2.32392
0 -0.000142687 -0.0166333
0.00510365 -0.0152271 -1.65511
0.678844 -0.828408 -2.01586
2.32702 -1.16297 -2.83555
0.48341 -1.41382 -1.43572
1.65806 -1.98876 -2.01956
0.00716707 -0.00906745 -2.36159
0.0255063 -0.0127302 -3.32359
0.00510365 -0.0154736 -1.68197
0.0181748 -0.0217686 -2.36713
0 -0.0142504 -0.0142504
0.47631 -1.39144 -1.39144
0 -0.0164062 -0.000142687
0.0050293 -1.62986 -0.0152271
0 -0.000142687 -0.0164062
0.0050293 -0.0152271 -1.62986
0 -0.000160532 -0.00016053
5.26583e-05 -0.0178363 -0.0178363
0.47631 -1.41382 -1.41382
1.63277 -1.98876 -1.98876
0.0050293 -1.65631 -0.0154736
0.0178947 -2.33104 -0.0217686
0.0050293 -0.0154736 -1.65631
0.0178947 -0.0217686 -2.33104
5.26583e-05 -0.0181271 -0.0181271
0.000198157 -0.0255147 -0.0255147
3.31643 -1.65822 -1.65822
5.67139 -1.18203 -1.18203
2.36307 -2.8357 -1.18103
4.04224 -2.02259 -0.841875
2.36307 -1.18103 -2.8357
4.04224 -0.841875 -2.02259
1.68375 -2.01965 -2.01965
2.88098 -1.44049 -1.44049
5.67139 -1.164 -1.164
6.64757 -0.0127756 -0.0127756
4.04224 -1.99127 -0.829028
4.73842 -0.0221569 -0.00909929
4.04224 -0.829028 -1.99127
4.73842 -0.00909929 -0.0221569
2.88098 -1.41818 -1.41818
3.37742 -0.0157797 -0.0157797
2.32702 -2.8357 -1.16302
3.98013 -2.02259 -0.829033
0.0255063 -3.32379 -0.0127307
0.0439263 -2.37115 -0.00907552
1.65806 -2.01965 -1.98885
2.83671 -1.44049 -1.41853
0.0181748 -2.36726 -0.0217694
0.0313075 -1.68871 -0.0155278
3.98013 -1.99127 -0.816384
4.6655 -0.0221569 -0.00895912
0.0439263 -2.33433 -0.00893559
0.0515671 -0.0260513 -9.9078e-05
2.83671 -1.41818 -1.39656
3.32545 -0.0157797 -0.0155362
0.0313075 -1.66248 -0.0152841
0.0367557 -0.0185526 -0.00017225
2.32702 -1.16302 -2.8357
3.98013 -0.829033 -2.02259
1.65806 -1.98885 -2.01965
2.83671 -1.41853 -1.44049
0.0255063 -0.0127307 -3.32379
0.0439263 -0.00907553 -2.37115
0.0181748 -0.0217694 -2.36726
0.0313075 -0.0155278 -1.68871
3.98013 -0.816384 -1.99127
4.6655 -0.00895912 -0.0221569
2.83671 -1.39656 -1.41818
3.32545 -0.0155362 -0.0157797
0.0439263 -0.00893559 -2.33433
0.0515671 -9.90801e-05 -0.0260513
0.0313075 -0.0152841 -1.66248
0.0367557 -0.000172252 -0.0185526
1.63277 -1.98885 -1.98885
2.79313 -1.41853 -1.41853
0.0178947 -2.33117 -0.0217694
0.0308203 -1.66297 -0.0155278
0.0178947 -0.0217694 -2.33117
0.0308203 -0.0155278 -1.66297
0.000198157 -0.0255159 -0.0255159
0.000344501 -0.0182031 -0.0182031
2.79313 -1.39656 -1.39656
3.27428 -0.0155362 -0.0155362
0.0308203 -1.63714 -0.0152841
0.0361825 -0.0182661 -0.00017225
0.0308203 -0.0152841 -1.63714
0.0361825 -0.000172252 -0.0182661
0.000344501 -0.0179164 -0.0179164
0.00040523 -0.000202617 -0.000202615
-0.000147945 0 0
3.93159e-06 0 0
0.0345214 1.56977e-05 0
0.0297842 0.00255693 0
0.0345214 0 1.56999e-05
0.0297842 0 0.00255693
3.26438 0.00242506 0.00242506
2.787 0.238354 0.238354
3.93159e-06 0 0
0.000345918 0 0
0.0297842 0.00257636 0
0.0182994 0.00364587 0
0.0297842 0 0.00257636
0.0182994 0 0.00364587
2.787 0.241763 0.241763
1.63439 0.339633 0.339633
0.0351972 1.56977e-05 0
0.0303331 0.00255693 0
0.0500152 0.000103143 0
0.0429459 0.00915313 0
3.31606 0.00242506 0.00245995
2.83089 0.238354 0.242078
4.6594 0.00897705 0.00345133
3.97635 0.817695 0.339587
0.0303331 0.00257636 0
0.018551 0.00364587 0
0.0429459 0.0092967 0
0.0259079 0.0130115 0
2.83089 0.241763 0.245537
1.65952 0.339633 0.344925
3.97635 0.83036 0.344444
2.328 1.16479 0.483787
0.0351972 0 1.56999e-05
0.0303331 0 0.00255693
3.31606 0.00245995 0.00242506
2.83089 0.242078 0.238354
0.0500152 0 0.000103142
0.0429459 0 0.00915313
4.6594 0.00345133 0.00897705
3.97635 0.339587 0.817695
0.0303331 0 0.00257636
0.018551 0 0.00364587
2.83089 0.245537 0.241763
1.65952 0.344925 0.339633
0.0429459 0 0.00929669
0.0259079 0 0.0130115
3.97635 0.344444 0.83036
2.328 0.483787 1.16479
3.36851 0.00245995 0.00245995
2.87545 0.242078 0.242078
4.73278 0.00911587 0.00345133
4.03874 0.830261 0.339587
4.73278 0.00345133 0.00911588
4.03874 0.339587 0.830261
6.64734 0.012776 0.012776
5.67125 1.16404 1.16404
2.87545 0.245537 0.245537
1.68506 0.344925 0.344925
4.03874 0.843123 0.344444
2.36388 1.18271 0.483787
4.03874 0.344444 0.843123
2.36388 0.483787 1.18271
5.67125 1.18207 1.18207
3.31641 1.65827 1.65827
0.000345918 0 0
0.000434474 0 0
0.0182994 0.00363788 0
0.00620831 0.00275068 0
0.0182994 0 0.00363788
0.00620831 0 0.00275068
1.63439 0.339593 0.339593
0.480193 0.243165 0.243165
0.000434474 0 0
0 0 0
0.00620831 0.00278634 0
0 0.000217236 0
0.00620831 0 0.00278634
0 0 0.000217237
0.480193 0.240097 0.240097
0 0.00342196 0.00342197
0.018551 0.00363788 0
0.00622781 0.00275068 0
0.0259079 0.0130042 0
0.00849165 0.00927964 0
1.65952 0.339593 0.344885
0.486911 0.243165 0.246879
2.328 1.16474 0.483722
0.681204 0.829769 0.346021
0.00622781 0.00278634 0
0 0.000217236 0
0.00849165 0.00915462 0
0 0.000172958 0
0.486911 0.240097 0.243746
0 0.00342196 0.00347713
0.681204 0.817196 0.341611
0 0.00914481 0.00485378
0.018551 0 0.00363788
0.00622781 0 0.00275068
1.65952 0.344885 0.339593
0.486911 0.246879 0.243165
0.0259079 0 0.0130042
0.00849166 0 0.00927964
2.328 0.483722 1.16474
0.681204 0.346021 0.829769
0.00622781 0 0.00278634
0 0 0.000217237
0.486911 0.243746 0.240097
0 0.00347713 0.00342197
0.00849166 0 0.00915462
0 0 0.000172959
0.681204 0.341611 0.817196
0 0.00485378 0.00914481
1.68506 0.344885 0.344885
0.493758 0.246879 0.246879
2.36388 1.18265 0.483722
0.690906 0.842528 0.346021
2.36388 0.483722 1.18265
0.690906 0.346021 0.842528
3.31641 1.6582 1.6582
0.967444 1.18122 1.18122
0.493758 0.243746 0.243746
0 0.00347713 0.00347713
0.690906 0.829752 0.341611
0 0.00927136 0.00485378
0.690906 0.341611 0.829752
0 0.00485378 0.00927136
0.967444 1.16327 1.16327
0 0.0129037 0.0129037
0.0500059 0.000103143 0
0.0429402 0.00915313 0
0.0357261 0.000194297 0
0.0306573 0.0159292 0
4.6595 0.00897705 0.00345115
3.97641 0.817695 0.339569
3.32169 0.0155767 0.0024578
2.83441 1.39941 0.241849
0.0429402 0.0092967 0
0.0259141 0.0130115 0
0.0306573 0.0162049 0
0.0184666 0.0225786 0
3.97641 0.83036 0.344426
2.32802 1.16479 0.48376
2.83441 1.42142 0.245308
1.6588 1.99244 0.344536
0.0351675 0.000194297 0
0.0301796 0.0159292 0
0.000393218 0.000232686 0
0.000336984 0.0187613 0
3.27057 0.0155767 0.00242049
2.79085 1.39941 0.238155
0.0361539 0.0183177 2.63293e-05
0.0308037 1.6407 0.0026088
0.0301796 0.0162049 0
0.0181821 0.0225786 0
0.000336984 0.0190928 0
0.000202635 0.0265658 0
2.79085 1.42142 0.241561
1.6335 1.99244 0.339275
0.0308037 1.66659 0.00264585
0.0179049 2.33558 0.00371592
4.73288 0.00911587 0.00345115
4.03881 0.830261 0.339569
3.37397 0.015819 0.0024578
2.87886 1.42079 0.241849
6.64746 0.012776 0.0127756
5.67132 1.16404 1.164
4.73835 0.0221577 0.00909929
4.0422 1.99133 0.829028
4.03881 0.843123 0.344426
2.36389 1.18271 0.48376
2.87886 1.44313 0.245308
1.68436 2.02295 0.344536
5.67132 1.18207 1.18203
3.31642 1.65827 1.65822
4.0422 2.02264 0.841875
2.36306 2.83577 1.18103
3.32203 0.015819 0.00242049
2.83461 1.42079 0.238155
0.0367299 0.0186028 2.63293e-05
0.0312926 1.66572 0.0026088
4.66543 0.0221577 0.00895912
3.98009 1.99133 0.816384
0.0515669 0.0260521 9.90787e-05
0.0439262 2.33439 0.00893559
2.83461 1.44313 0.241561
1.65867 2.02295 0.339275
0.0312926 1.692 0.00264585
0.0181833 2.37129 0.00371592
3.98009 2.02264 0.829033
2.32701 2.83577 1.16302
0.0439262 2.37121 0.00907552
0.0255062 3.32387 0.0127307
0.0259141 0.0130042 0
0.00850728 0.00927964 0
0.0184666 0.0225708 0
0.00605556 0.0157498 0
2.32802 1.16474 0.483694
0.68124 0.829769 0.346012
1.6588 1.9923 0.344488
0.485052 1.4159 0.246423
0.00850728 0.00915462 0
0 0.000172958 0
0.00605556 0.0154134 0
0 1.96825e-06 0
0.68124 0.817196 0.341607
0 0.00914481 0.00486141
0.485052 1.3935 0.243289
0 0.0143708 0.00347921
0.0181821 0.0225708 0
0.00596403 0.0157498 0
0.000202635 0.0265563 0
6.60136e-05 0.0184254 0
1.6335 1.9923 0.339228
0.477932 1.4159 0.242662
0.0179049 2.33538 0.00371527
0.00504715 1.65867 0.00265774
0.00596403 0.0154134 0
0 1.96825e-06 0
6.60136e-05 0.0179994 0
0 -7.39714e-05 0
0.477932 1.3935 0.239578
0 0.0143708 0.00340711
0.00504715 1.63219 0.00262209
0 0.016522 5.03126e-05
2.36389 1.18265 0.483694
0.690937 0.842528 0.346012
1.68436 2.02281 0.344488
0.49196 1.43772 0.246423
3.31642 1.6582 1.65815
0.967482 1.18122 1.18118
2.36306 2.83562 1.18099
0.688932 2.01593 0.841241
0.690937 0.829752 0.341607
0 0.00927136 0.00486141
0.49196 1.41499 0.243289
0 0.0145833 0.00347921
0.967482 1.16327 1.16323
0 0.0129037 0.0129026
0.688932 1.98405 0.828441
0 0.0203751 0.00916989
1.65867 2.02281 0.339228
0.48474 1.43772 0.242662
0.0181833 2.3711 0.00371527
0.00511769 1.68425 0.00265774
2.32701 2.83562 1.16297
0.678815 2.01593 0.828408
0.0255062 3.32367 0.0127302
0.0071666 2.36168 0.00906745
0.48474 1.41499 0.239578
0 0.0145833 0.00340711
0.00511769 1.65739 0.00262209
0 0.0167719 5.03126e-05
0.678815 1.98405 0.815805
0 0.0203751 0.00902897
0.0071666 2.32402 0.00892785