# vtk DataFile Version 3.0
#This file was generated by the deal.II library on 2017/9/21 at 12:25:47
ASCII
DATASET UNSTRUCTURED_GRID

POINTS 64 double
0 0 0
0.5 0 0
0 0.5 0
0.5 0.5 0
0 0 0.5
0.5 0 0.5
0 0.5 0.5
0.5 0.5 0.5
0.5 0 0
1 0 0
0.5 0.5 0
1 0.5 0
0.5 0 0.5
1 0 0.5
0.5 0.5 0.5
1 0.5 0.5
0 0.5 0
0.5 0.5 0
0 1 0
0.5 1 0
0 0.5 0.5
0.5 0.5 0.5
0 1 0.5
0.5 1 0.5
0.5 0.5 0
1 0.5 0
0.5 1 0
1 1 0
0.5 0.5 0.5
1 0.5 0.5
0.5 1 0.5
1 1 0.5
0 0 0.5
0.5 0 0.5
0 0.5 0.5
0.5 0.5 0.5
0 0 1
0.5 0 1
0 0.5 1
0.5 0.5 1
0.5 0 0.5
1 0 0.5
0.5 0.5 0.5
1 0.5 0.5
0.5 0 1
1 0 1
0.5 0.5 1
1 0.5 1
0 0.5 0.5
0.5 0.5 0.5
0 1 0.5
0.5 1 0.5
0 0.5 1
0.5 0.5 1
0 1 1
0.5 1 1
0.5 0.5 0.5
1 0.5 0.5
0.5 1 0.5
1 1 0.5
0.5 0.5 1
1 0.5 1
0.5 1 1
1 1 1

CELLS 8 72
8	0	1	3	2	4	5	7	6
8	8	9	11	10	12	13	15	14
8	16	17	19	18	20	21	23	22
8	24	25	27	26	28	29	31	30
8	32	33	35	34	36	37	39	38
8	40	41	43	42	44	45	47	46
8	48	49	51	50	52	53	55	54
8	56	57	59	58	60	61	63	62

CELL_TYPES 8
 12 12 12 12 12 12 12 12
POINT_DATA 64
VECTORS velocity double
0 0 0
1.09216 0 0
0 -0.546082 0
1.24744 -0.726444 0
0 0 -0.546078
1.24744 0 -0.726436
0 -0.521015 -0.521007
1.31587 -0.657915 -0.657936
1.09216 0 0
0 0 0
1.24744 0.726428 0
0 0.546074 0
1.24744 0 0.726436
0 0 0.546078
1.31587 0.657956 0.657936
0 0.520999 0.521007
0 -0.546082 0
-1.24744 -0.726444 0
0 0 0
-1.09216 0 0
0 -0.521015 0.521007
-1.31587 -0.657915 0.657936
0 0 0.546078
-1.24744 0 0.726436
-1.24744 0.726428 0
0 0.546074 0
-1.09216 0 0
0 0 0
-1.31587 0.657956 -0.657936
0 0.520999 -0.521007
-1.24744 0 -0.726436
0 0 -0.546078
0 0 -0.546078
-1.24744 0 -0.726436
0 0.520999 -0.521007
-1.31587 0.657956 -0.657936
0 0 0
-1.09216 0 0
0 0.546074 0
-1.24744 0.726428 0
-1.24744 0 0.726436
0 0 0.546078
-1.31587 -0.657915 0.657936
0 -0.521015 0.521007
-1.09216 0 0
0 0 0
-1.24744 -0.726444 0
0 -0.546082 0
0 0.520999 0.521007
1.31587 0.657956 0.657936
0 0 0.546078
1.24744 0 0.726436
0 0.546074 0
1.24744 0.726428 0
0 0 0
1.09216 0 0
1.31587 -0.657915 -0.657936
0 -0.521015 -0.521007
1.24744 0 -0.726436
0 0 -0.546078
1.24744 -0.726444 0
0 -0.546082 0
1.09216 0 0
0 0 0
SCALARS pressure double 1
LOOKUP_TABLE default
0.0149634 -6.22197 3.18939 -1.61605 3.34188 -0.0759377 3.2775 0.15374 6.52983 0.0149635 1.64631 -3.18651 3.18643 -3.03402 0.15374 -3.24724 -3.18939 1.61605 -0.0149634 6.22197 -3.2775 -0.15374 -3.34188 0.0759377 -1.64631 3.18651 -6.52983 -0.0149634 -0.15374 3.24724 -3.18643 3.03402 -3.03402 3.18643 -3.24724 0.15374 0.0149633 6.52983 -3.18651 1.64631 -0.0759377 3.34188 0.15374 3.2775 -6.22197 0.0149634 -1.61605 3.18939 3.24724 -0.15374 3.03402 -3.18643 3.18651 -1.64631 -0.0149633 -6.52983 -0.15374 -3.2775 0.0759377 -3.34188 1.61605 -3.18939 6.22197 -0.0149634 
SCALARS global_div_diff double 1
LOOKUP_TABLE default
2.55968e-10 2.55968e-10 2.55968e-10 2.55968e-10 2.55968e-10 2.55968e-10 2.55968e-10 2.55968e-10 7.90213e-10 7.90213e-10 7.90213e-10 7.90213e-10 7.90213e-10 7.90213e-10 7.90213e-10 7.90213e-10 4.57072e-10 4.57072e-10 4.57072e-10 4.57072e-10 4.57072e-10 4.57072e-10 4.57072e-10 4.57072e-10 5.22418e-10 5.22418e-10 5.22418e-10 5.22418e-10 5.22418e-10 5.22418e-10 5.22418e-10 5.22418e-10 7.38957e-10 7.38957e-10 7.38957e-10 7.38957e-10 7.38957e-10 7.38957e-10 7.38957e-10 7.38957e-10 1.63808e-10 1.63808e-10 1.63808e-10 1.63808e-10 1.63808e-10 1.63808e-10 1.63808e-10 1.63808e-10 1.01189e-09 1.01189e-09 1.01189e-09 1.01189e-09 1.01189e-09 1.01189e-09 1.01189e-09 1.01189e-09 2.29542e-10 2.29542e-10 2.29542e-10 2.29542e-10 2.29542e-10 2.29542e-10 2.29542e-10 2.29542e-10 
SCALARS cell_div_diff double 1
LOOKUP_TABLE default
0.437465 0.437465 0.437465 0.437465 0.437465 0.437465 0.437465 0.437465 0.437464 0.437464 0.437464 0.437464 0.437464 0.437464 0.437464 0.437464 0.437465 0.437465 0.437465 0.437465 0.437465 0.437465 0.437465 0.437465 0.437464 0.437464 0.437464 0.437464 0.437464 0.437464 0.437464 0.437464 0.437464 0.437464 0.437464 0.437464 0.437464 0.437464 0.437464 0.437464 0.437465 0.437465 0.437465 0.437465 0.437465 0.437465 0.437465 0.437465 0.437464 0.437464 0.437464 0.437464 0.437464 0.437464 0.437464 0.437464 0.437465 0.437465 0.437465 0.437465 0.437465 0.437465 0.437465 0.437465 
SCALARS global_l2_diff double 1
LOOKUP_TABLE default
0.618245 0.618245 0.618245 0.618245 0.618245 0.618245 0.618245 0.618245 0.618245 0.618245 0.618245 0.618245 0.618245 0.618245 0.618245 0.618245 0.618245 0.618245 0.618245 0.618245 0.618245 0.618245 0.618245 0.618245 0.618245 0.618245 0.618245 0.618245 0.618245 0.618245 0.618245 0.618245 0.618245 0.618245 0.618245 0.618245 0.618245 0.618245 0.618245 0.618245 0.618245 0.618245 0.618245 0.618245 0.618245 0.618245 0.618245 0.618245 0.618245 0.618245 0.618245 0.618245 0.618245 0.618245 0.618245 0.618245 0.618245 0.618245 0.618245 0.618245 0.618245 0.618245 0.618245 0.618245 
SCALARS global_h1_diff double 1
LOOKUP_TABLE default
7.79504 7.79504 7.79504 7.79504 7.79504 7.79504 7.79504 7.79504 7.79504 7.79504 7.79504 7.79504 7.79504 7.79504 7.79504 7.79504 7.79504 7.79504 7.79504 7.79504 7.79504 7.79504 7.79504 7.79504 7.79504 7.79504 7.79504 7.79504 7.79504 7.79504 7.79504 7.79504 7.79504 7.79504 7.79504 7.79504 7.79504 7.79504 7.79504 7.79504 7.79504 7.79504 7.79504 7.79504 7.79504 7.79504 7.79504 7.79504 7.79504 7.79504 7.79504 7.79504 7.79504 7.79504 7.79504 7.79504 7.79504 7.79504 7.79504 7.79504 7.79504 7.79504 7.79504 7.79504 
